# vtk DataFile Version 2.0
iteration 2403
ASCII

DATASET STRUCTURED_POINTS
DIMENSIONS 621 64 1
ORIGIN 0 0 0
SPACING 0.00161031 0.00161031 0.00161031

POINT_DATA 39744
SCALARS P float 1
LOOKUP_TABLE default
0 0 0 0 0 0 0 0 0 0 0 0 0 0 0 0 0 0 0 0 0 0 0 0 0 0 0 0 0 0 0 0 0 0 0 0 0 0 0 0 0 0 0 0 0 0 0 0 0 0 0 0 0 0 0 0 0 0 0 0 0 0 0 0 0 0 0 0 0 0 0 0 0 0 0 0 0 0 0 0 0 0 0 0 0 0 0 0 0 0 0 0 0 0 0 0 0 0 0 0 0 0 0 0 0 0 0 0 0 0 0 0 0 0 0 0 0 0 0 0 0 0 0 0 0 0 0 0 0 0 0 0 0 0 0 0 0 0 0 0 0 0 0 0 0 0 0 0 0 0 0 0 0 0 0 0 0 0 0 0 0 0 0 0 0 0 0 0 0 0 0 0 0 0 0 0 0 0 0 0 0 0 0 0 0 0 0 0 0 0 0 0 0 0 0 0 0 0 0 0 0 0 0 0 0 0 0 0 0 0 0 0 0 0 0 0 0 0 0 0 0 0 0 0 0 0 0 0 0 0 0 0 0 0 0 0 0 0 0 0 0 0 0 0 0 0 0 0 0 0 0 0 0 0 0 0 0 0 0 0 0 0 0 0 0 0 0 0 0 0 0 0 0 0 0 0 0 0 0 0 0 0 0 0 0 0 0 0 0 0 0 0 0 0 0 0 0 0 0 0 0 0 0 0 0 0 0 0 0 0 0 0 0 0 0 0 0 0 0 0 0 0 0 0 0 0 0 0 0 0 0 0 0 0 0 0 0 0 0 0 0 0 0 0 0 0 0 0 0 0 0 0 0 0 0 0 0 0 0 0 0 0 0 0 0 0 0 0 0 0 0 0 0 0 0 0 0 0 0 0 0 0 0 0 0 0 0 0 0 0 0 0 0 0 0 0 0 0 0 0 0 0 0 0 0 0 0 0 0 0 0 0 0 0 0 0 0 0 0 0 0 0 0 0 0 0 0 0 0 0 0 0 0 0 0 0 0 0 0 0 0 0 0 0 0 0 0 0 0 0 0 0 0 0 0 0 0 0 0 0 0 0 0 0 0 0 0 0 0 0 0 0 0 0 0 0 0 0 0 0 0 0 0 0 0 0 0 0 0 0 0 0 0 0 0 0 0 0 0 0 0 0 0 0 0 0 0 0 0 0 0 0 0 0 0 0 0 0 0 0 0 0 0 0 0 0 0 0 0 0 0 0 0 0 0 0 0 0 0 0 0 0 0 0 0 0 0 0 0 0 0 0 0 0 0 0 0 0 0 0 0 0 0 0 0 0 0 0 0 0 0 0 0 0 0 0 0 0 0 0 0 0 0 0 0 0 0 0 0 0 0 0 0 0 0 0 0 0 0 0 0 0 0 0 0 0 0 0 0 0 0 0 0 0 0 0 0 0 0 0 0 
0.020978 0.0210272 0.0210581 0.0210969 0.0211381 0.0211796 0.0212206 0.0212609 0.0213001 0.0213383 0.0213754 0.0214112 0.0214459 0.0214793 0.0215114 0.0215422 0.0215717 0.0215998 0.0216267 0.0216521 0.0216763 0.021699 0.0217204 0.0217404 0.0217591 0.0217763 0.0217922 0.0218067 0.0218198 0.0218315 0.0218418 0.0218507 0.0218582 0.0218642 0.0218689 0.0218722 0.021874 0.0218745 0.0218736 0.0218712 0.0218675 0.0218624 0.021856 0.0218482 0.0218391 0.0218287 0.0218169 0.0218039 0.0217896 0.0217741 0.0217574 0.0217395 0.0217204 0.0217003 0.021679 0.0216567 0.0216333 0.021609 0.0215837 0.0215575 0.0215304 0.0215025 0.0214738 0.0214444 0.0214142 0.0213835 0.0213521 0.0213202 0.0212878 0.0212549 0.0212217 0.0211881 0.0211542 0.0211201 0.0210858 0.0210514 0.021017 0.0209825 0.0209481 0.0209138 0.0208797 0.0208458 0.0208121 0.0207788 0.0207459 0.0207134 0.0206813 0.0206498 0.0206189 0.0205886 0.0205589 0.0205299 0.0205017 0.0204742 0.0204475 0.0204216 0.0203965 0.0203723 0.020349 0.0203266 0.0203051 0.0202844 0.0202647 0.0202459 0.020228 0.020211 0.0201948 0.0201796 0.0201652 0.0201516 0.0201389 0.0201269 0.0201158 0.0201053 0.0200956 0.0200866 0.0200783 0.0200706 0.0200635 0.020057 0.020051 0.0200456 0.0200406 0.0200361 0.020032 0.0200283 0.0200249 0.0200219 0.0200192 0.0200168 0.0200146 0.0200127 0.020011 0.0200095 0.0200082 0.0200071 0.020006 0.0200052 0.0200044 0.0200037 0.0200031 0.0200027 0.0200022 0.0200019 0.0200016 0.0200013 0.0200011 0.0200009 0.0200007 0.0200006 0.0200005 0.0200004 0.0200003 0.0200003 0.0200002 0.0200002 0.0200001 0.0200001 0.0200001 0.0200001 0.0200001 0.02 0.02 0.02 0.02 0.02 0.02 0.02 0.02 0.02 0.02 0.02 0.02 0.02 0.02 0.02 0.02 0.02 0.02 0.02 0.02 0.02 0.02 0.02 0.02 0.02 0.02 0.02 0.02 0.02 0.02 0.02 0.02 0.02 0.02 0.02 0.02 0.02 0.02 0.02 0.02 0.02 0.02 0.02 0.02 0.02 0.02 0.02 0.02 0.02 0.02 0.02 0.02 0.02 0.02 0.02 0.02 0.02 0.02 0.02 0.02 0.02 0.02 0.02 0.02 0.02 0.02 0.0199999 0.0199999 0.0199999 0.0199999 0.0199999 0.0199999 0.0199999 0.0199999 0.0199999 0.0199998 0.0199998 0.0199998 0.0199998 0.0199998 0.0199997 0.0199997 0.0199997 0.0199996 0.0199996 0.0199996 0.0199995 0.0199995 0.0199994 0.0199994 0.0199993 0.0199993 0.0199992 0.0199991 0.019999 0.019999 0.0199989 0.0199988 0.0199987 0.0199986 0.0199985 0.0199983 0.0199982 0.0199981 0.0199979 0.0199978 0.0199976 0.0199974 0.0199973 0.0199971 0.0199969 0.0199967 0.0199965 0.0199962 0.019996 0.0199957 0.0199955 0.0199952 0.0199949 0.0199946 0.0199943 0.019994 0.0199937 0.0199934 0.019993 0.0199927 0.0199923 0.0199919 0.0199915 0.0199912 0.0199908 0.0199904 0.0199899 0.0199895 0.0199891 0.0199887 0.0199883 0.0199878 0.0199874 0.019987 0.0199866 0.0199861 0.0199857 0.0199853 0.0199849 0.0199845 0.0199841 0.0199838 0.0199834 0.0199831 0.0199827 0.0199824 0.0199822 0.0199819 0.0199817 0.0199815 0.0199813 0.0199812 0.0199811 0.019981 0.019981 0.019981 0.019981 0.0199811 0.0199813 0.0199815 0.0199817 0.0199821 0.0199825 0.0199829 0.0199835 0.0199841 0.0199847 0.0199855 0.0199863 0.0199872 0.0199882 0.0199893 0.0199905 0.0199918 0.0199932 0.0199946 0.0199962 0.0199979 0.0199997 0.0200016 0.0200036 0.0200057 0.0200079 0.0200103 0.0200128 0.0200154 0.0200181 0.0200209 0.0200239 0.020027 0.0200302 0.0200336 0.0200371 0.0200407 0.0200444 0.0200483 0.0200523 0.0200565 0.0200608 0.0200652 0.0200698 0.0200744 0.0200793 0.0200842 0.0200893 0.0200945 0.0200998 0.0201053 0.0201109 0.0201166 0.0201224 0.0201284 0.0201344 0.0201406 0.0201469 0.0201532 0.0201597 0.0201663 0.020173 0.0201797 0.0201866 0.0201935 0.0202005 0.0202076 0.0202147 0.0202219 0.0202291 0.0202364 0.0202437 0.0202511 0.0202585 0.0202659 0.0202733 0.0202807 0.0202881 0.0202955 0.0203029 0.0203102 0.0203175 0.0203247 0.0203319 0.0203391 0.0203461 0.0203531 0.0203602 0.0203671 0.0203739 0.0203809 0.0203877 0.0203945 0.0204012 0.0204077 0.0204142 0.0204205 0.0204268 0.0204328 0.0204388 0.0204446 0.0204503 0.0204558 0.0204611 0.0204663 0.0204713 0.0204761 0.0204807 0.0204852 0.0204894 0.0204935 0.0204973 0.0205009 0.0205043 0.0205075 0.0205104 0.0205131 0.0205156 0.0205179 0.0205199 0.0205216 0.0205231 0.0205243 0.0205253 0.020526 0.0205265 0.0205267 0.0205266 0.0205263 0.0205257 0.0205248 0.0205236 0.0205222 0.0205205 0.0205185 0.0205163 0.0205138 0.020511 0.0205079 0.0205046 0.020501 0.0204971 0.020493 0.0204886 0.0204839 0.020479 0.0204738 0.0204683 0.0204626 0.0204566 0.0204503 0.0204438 0.020437 0.0204299 0.0204225 0.0204149 0.020407 0.0203989 0.0203904 0.0203817 0.0203726 0.0203633 0.0203537 0.0203438 0.0203336 0.0203231 0.0203123 0.0203012 0.0202898 0.0202782 0.0202662 0.020254 0.0202416 0.0202289 0.020216 0.0202029 0.0201895 0.020176 0.0201624 0.0201486 0.0201346 0.0201205 0.0201064 0.0200921 0.0200777 0.0200633 0.0200488 0.0200342 0.0200195 0.0200046 0.0199897 0.0199747 0.0199594 0.0199441 0.0199285 0.0199127 0.0198966 0.0198802 0.0198636 0.0198466 0.0198292 0.0198114 0.0197932 0.0197745 0.0197553 0.0197355 0.0197152 0.0196944 0.019673 0.0196511 0.0196287 0.019606 0.019583 0.0195599 0.0195372 0.0195149 0.0194936 0.0194738 0.0194559 0.0194406 0.0194285 0.0194203 0.0194166 0.0194181 0.0194253 0.0194389 0.0194593 0.019487 0.0195222 0.0195652 0.0196158 0.019674 0.0197392 0.0198105 0.0198863 0.0199644 0.0200409 0.0201107 0.0201676 0.0202046 0.0202076 0.0201631 0.0200667 0.0199894 0.0197841 0.0204288 0.022963 0.020308 0 0 0 0 0 0 0 0 0 0 0 0 0 0 0 0 0 0 0 0 0 0 0 0 0 0 0 0 0 0 0 0 0 0 0 0 0 0 0 0 0 0 0 0 0 0 0 0 0 
0.020978 0.0210233 0.0210621 0.0211023 0.0211434 0.0211846 0.0212253 0.0212652 0.0213043 0.0213423 0.0213792 0.0214149 0.0214494 0.0214826 0.0215146 0.0215453 0.0215746 0.0216027 0.0216294 0.0216547 0.0216787 0.0217013 0.0217226 0.0217425 0.021761 0.0217781 0.0217938 0.0218082 0.0218211 0.0218327 0.0218428 0.0218516 0.0218589 0.0218649 0.0218694 0.0218725 0.0218743 0.0218746 0.0218735 0.021871 0.0218672 0.021862 0.0218554 0.0218475 0.0218382 0.0218277 0.0218158 0.0218027 0.0217883 0.0217726 0.0217558 0.0217378 0.0217186 0.0216983 0.0216769 0.0216544 0.021631 0.0216065 0.0215811 0.0215548 0.0215276 0.0214996 0.0214708 0.0214413 0.0214111 0.0213802 0.0213488 0.0213168 0.0212843 0.0212513 0.021218 0.0211844 0.0211505 0.0211163 0.021082 0.0210476 0.0210131 0.0209786 0.0209442 0.0209099 0.0208758 0.0208419 0.0208082 0.0207749 0.020742 0.0207096 0.0206776 0.0206461 0.0206153 0.020585 0.0205554 0.0205265 0.0204983 0.0204709 0.0204443 0.0204185 0.0203936 0.0203695 0.0203463 0.0203239 0.0203025 0.020282 0.0202624 0.0202437 0.0202259 0.020209 0.0201929 0.0201778 0.0201635 0.02015 0.0201374 0.0201255 0.0201145 0.0201041 0.0200945 0.0200856 0.0200774 0.0200698 0.0200627 0.0200563 0.0200504 0.020045 0.0200401 0.0200356 0.0200315 0.0200279 0.0200246 0.0200216 0.0200189 0.0200165 0.0200144 0.0200125 0.0200109 0.0200094 0.0200081 0.0200069 0.0200059 0.0200051 0.0200043 0.0200037 0.0200031 0.0200026 0.0200022 0.0200018 0.0200015 0.0200013 0.0200011 0.0200009 0.0200007 0.0200006 0.0200005 0.0200004 0.0200003 0.0200003 0.0200002 0.0200002 0.0200001 0.0200001 0.0200001 0.0200001 0.02 0.02 0.02 0.02 0.02 0.02 0.02 0.02 0.02 0.02 0.02 0.02 0.02 0.02 0.02 0.02 0.02 0.02 0.02 0.02 0.02 0.02 0.02 0.02 0.02 0.02 0.02 0.02 0.02 0.02 0.02 0.02 0.02 0.02 0.02 0.02 0.02 0.02 0.02 0.02 0.02 0.02 0.02 0.02 0.02 0.02 0.02 0.02 0.02 0.02 0.02 0.02 0.02 0.02 0.02 0.02 0.02 0.02 0.02 0.02 0.02 0.02 0.02 0.02 0.02 0.02 0.02 0.0199999 0.0199999 0.0199999 0.0199999 0.0199999 0.0199999 0.0199999 0.0199999 0.0199999 0.0199998 0.0199998 0.0199998 0.0199998 0.0199998 0.0199997 0.0199997 0.0199997 0.0199996 0.0199996 0.0199996 0.0199995 0.0199995 0.0199994 0.0199994 0.0199993 0.0199993 0.0199992 0.0199991 0.0199991 0.019999 0.0199989 0.0199988 0.0199987 0.0199986 0.0199985 0.0199983 0.0199982 0.0199981 0.0199979 0.0199978 0.0199976 0.0199975 0.0199973 0.0199971 0.0199969 0.0199967 0.0199965 0.0199962 0.019996 0.0199958 0.0199955 0.0199952 0.0199949 0.0199947 0.0199943 0.019994 0.0199937 0.0199934 0.019993 0.0199927 0.0199923 0.0199919 0.0199916 0.0199912 0.0199908 0.0199904 0.01999 0.0199896 0.0199891 0.0199887 0.0199883 0.0199879 0.0199874 0.019987 0.0199866 0.0199862 0.0199857 0.0199853 0.0199849 0.0199845 0.0199841 0.0199838 0.0199834 0.0199831 0.0199828 0.0199825 0.0199822 0.0199819 0.0199817 0.0199815 0.0199813 0.0199812 0.0199811 0.019981 0.019981 0.019981 0.0199811 0.0199812 0.0199813 0.0199815 0.0199818 0.0199821 0.0199825 0.0199829 0.0199835 0.0199841 0.0199848 0.0199855 0.0199863 0.0199872 0.0199882 0.0199893 0.0199905 0.0199918 0.0199932 0.0199946 0.0199962 0.0199979 0.0199997 0.0200016 0.0200036 0.0200057 0.0200079 0.0200103 0.0200127 0.0200153 0.020018 0.0200209 0.0200238 0.0200269 0.0200302 0.0200335 0.020037 0.0200406 0.0200444 0.0200482 0.0200523 0.0200564 0.0200607 0.0200651 0.0200696 0.0200743 0.0200791 0.020084 0.0200891 0.0200943 0.0200996 0.0201051 0.0201106 0.0201163 0.0201221 0.020128 0.0201341 0.0201402 0.0201464 0.0201528 0.0201592 0.0201658 0.0201724 0.0201791 0.0201859 0.0201928 0.0201997 0.0202067 0.0202138 0.0202209 0.0202281 0.0202353 0.0202426 0.0202499 0.0202572 0.0202645 0.0202718 0.0202791 0.0202865 0.0202938 0.020301 0.0203083 0.0203156 0.0203228 0.02033 0.0203372 0.0203442 0.0203513 0.0203584 0.0203654 0.0203724 0.0203793 0.0203861 0.0203929 0.0203995 0.020406 0.0204125 0.0204188 0.020425 0.020431 0.020437 0.0204428 0.0204484 0.0204539 0.0204592 0.0204643 0.0204693 0.0204741 0.0204787 0.0204831 0.0204873 0.0204914 0.0204952 0.0204988 0.0205021 0.0205053 0.0205082 0.0205109 0.0205134 0.0205156 0.0205176 0.0205193 0.0205207 0.020522 0.0205229 0.0205236 0.0205241 0.0205242 0.0205242 0.0205238 0.0205232 0.0205223 0.0205211 0.0205197 0.020518 0.020516 0.0205137 0.0205112 0.0205084 0.0205054 0.020502 0.0204984 0.0204945 0.0204904 0.020486 0.0204813 0.0204764 0.0204712 0.0204658 0.0204601 0.0204541 0.0204478 0.0204413 0.0204346 0.0204275 0.0204202 0.0204126 0.0204048 0.0203967 0.0203883 0.0203796 0.0203706 0.0203614 0.0203518 0.020342 0.0203319 0.0203214 0.0203107 0.0202998 0.0202885 0.0202769 0.0202651 0.020253 0.0202407 0.0202281 0.0202153 0.0202023 0.0201891 0.0201757 0.0201621 0.0201484 0.0201346 0.0201206 0.0201066 0.0200924 0.0200781 0.0200638 0.0200494 0.0200349 0.0200202 0.0200055 0.0199907 0.0199757 0.0199605 0.0199452 0.0199297 0.019914 0.019898 0.0198817 0.0198651 0.0198481 0.0198308 0.0198131 0.0197949 0.0197763 0.0197572 0.0197375 0.0197173 0.0196966 0.0196752 0.0196534 0.0196311 0.0196085 0.0195856 0.0195626 0.0195399 0.0195177 0.0194964 0.0194766 0.0194586 0.0194431 0.0194307 0.0194221 0.0194178 0.0194185 0.0194248 0.0194372 0.0194562 0.0194822 0.0195154 0.0195561 0.0196042 0.0196596 0.0197217 0.0197898 0.0198623 0.0199369 0.0200099 0.0200762 0.02013 0.020165 0.0201675 0.020126 0.0200438 0.020015 0.0197051 0.0198234 0.0205535 0.0198218 0.0188235 0.0178454 0.0167407 0.0154096 0.0138021 0.0118709 0.00956691 0.00687742 0.00390758 0.00126317 -0.00290715 0 0 0 0 0 0 0 0 0 0 0 0 0 0 0 0 0 0 0 0 0 0 0 0 0 0 0 0 0 0 0 0 0 0 0 0 0 0 
0.020978 0.0210225 0.0210638 0.0211048 0.021146 0.021187 0.0212275 0.0212673 0.0213062 0.0213441 0.0213809 0.0214166 0.021451 0.0214842 0.0215162 0.0215468 0.0215761 0.0216041 0.0216307 0.021656 0.02168 0.0217026 0.0217238 0.0217436 0.0217621 0.0217791 0.0217948 0.0218091 0.021822 0.0218335 0.0218436 0.0218523 0.0218596 0.0218655 0.02187 0.0218731 0.0218747 0.021875 0.0218739 0.0218714 0.0218675 0.0218622 0.0218556 0.0218476 0.0218383 0.0218277 0.0218158 0.0218026 0.0217881 0.0217724 0.0217555 0.0217375 0.0217182 0.0216979 0.0216764 0.0216539 0.0216304 0.0216059 0.0215805 0.0215541 0.0215269 0.0214988 0.02147 0.0214404 0.0214101 0.0213792 0.0213477 0.0213157 0.0212832 0.0212502 0.0212168 0.0211831 0.0211492 0.021115 0.0210807 0.0210462 0.0210117 0.0209772 0.0209428 0.0209084 0.0208743 0.0208404 0.0208067 0.0207734 0.0207405 0.020708 0.0206761 0.0206446 0.0206137 0.0205835 0.0205539 0.020525 0.0204969 0.0204695 0.0204429 0.0204172 0.0203922 0.0203682 0.020345 0.0203227 0.0203013 0.0202809 0.0202613 0.0202426 0.0202249 0.020208 0.020192 0.0201769 0.0201626 0.0201492 0.0201366 0.0201248 0.0201138 0.0201035 0.020094 0.0200851 0.0200769 0.0200693 0.0200623 0.0200559 0.02005 0.0200446 0.0200397 0.0200353 0.0200313 0.0200276 0.0200243 0.0200214 0.0200187 0.0200164 0.0200143 0.0200124 0.0200107 0.0200093 0.020008 0.0200069 0.0200059 0.020005 0.0200043 0.0200036 0.0200031 0.0200026 0.0200022 0.0200018 0.0200015 0.0200013 0.020001 0.0200009 0.0200007 0.0200006 0.0200005 0.0200004 0.0200003 0.0200003 0.0200002 0.0200002 0.0200001 0.0200001 0.0200001 0.0200001 0.02 0.02 0.02 0.02 0.02 0.02 0.02 0.02 0.02 0.02 0.02 0.02 0.02 0.02 0.02 0.02 0.02 0.02 0.02 0.02 0.02 0.02 0.02 0.02 0.02 0.02 0.02 0.02 0.02 0.02 0.02 0.02 0.02 0.02 0.02 0.02 0.02 0.02 0.02 0.02 0.02 0.02 0.02 0.02 0.02 0.02 0.02 0.02 0.02 0.02 0.02 0.02 0.02 0.02 0.02 0.02 0.02 0.02 0.02 0.02 0.02 0.02 0.02 0.02 0.02 0.02 0.02 0.0199999 0.0199999 0.0199999 0.0199999 0.0199999 0.0199999 0.0199999 0.0199999 0.0199999 0.0199998 0.0199998 0.0199998 0.0199998 0.0199998 0.0199997 0.0199997 0.0199997 0.0199996 0.0199996 0.0199996 0.0199995 0.0199995 0.0199994 0.0199994 0.0199993 0.0199993 0.0199992 0.0199991 0.0199991 0.019999 0.0199989 0.0199988 0.0199987 0.0199986 0.0199985 0.0199984 0.0199982 0.0199981 0.019998 0.0199978 0.0199976 0.0199975 0.0199973 0.0199971 0.0199969 0.0199967 0.0199965 0.0199963 0.019996 0.0199958 0.0199955 0.0199952 0.019995 0.0199947 0.0199944 0.0199941 0.0199937 0.0199934 0.0199931 0.0199927 0.0199923 0.019992 0.0199916 0.0199912 0.0199908 0.0199904 0.01999 0.0199896 0.0199892 0.0199887 0.0199883 0.0199879 0.0199875 0.019987 0.0199866 0.0199862 0.0199858 0.0199854 0.019985 0.0199846 0.0199842 0.0199838 0.0199835 0.0199831 0.0199828 0.0199825 0.0199822 0.019982 0.0199817 0.0199815 0.0199814 0.0199812 0.0199811 0.0199811 0.019981 0.0199811 0.0199811 0.0199812 0.0199814 0.0199816 0.0199818 0.0199821 0.0199825 0.019983 0.0199835 0.0199841 0.0199848 0.0199856 0.0199864 0.0199873 0.0199883 0.0199894 0.0199906 0.0199918 0.0199932 0.0199947 0.0199963 0.0199979 0.0199997 0.0200016 0.0200036 0.0200057 0.020008 0.0200103 0.0200128 0.0200154 0.0200181 0.0200209 0.0200239 0.020027 0.0200302 0.0200336 0.0200371 0.0200407 0.0200444 0.0200483 0.0200523 0.0200564 0.0200607 0.0200651 0.0200696 0.0200743 0.0200791 0.020084 0.0200891 0.0200942 0.0200995 0.020105 0.0201105 0.0201162 0.0201219 0.0201278 0.0201338 0.0201399 0.0201461 0.0201524 0.0201588 0.0201653 0.0201719 0.0201785 0.0201853 0.0201921 0.020199 0.0202059 0.0202129 0.0202199 0.020227 0.0202341 0.0202413 0.0202485 0.0202557 0.0202629 0.0202701 0.0202774 0.0202846 0.0202919 0.0202991 0.0203064 0.0203136 0.0203207 0.0203279 0.0203351 0.0203422 0.0203493 0.0203564 0.0203634 0.0203703 0.0203772 0.0203839 0.0203906 0.0203972 0.0204037 0.0204101 0.0204163 0.0204225 0.0204285 0.0204343 0.0204401 0.0204456 0.0204511 0.0204563 0.0204614 0.0204663 0.0204711 0.0204756 0.02048 0.0204841 0.0204881 0.0204918 0.0204953 0.0204987 0.0205017 0.0205046 0.0205072 0.0205096 0.0205118 0.0205137 0.0205154 0.0205168 0.0205179 0.0205188 0.0205195 0.0205198 0.02052 0.0205198 0.0205194 0.0205187 0.0205178 0.0205165 0.020515 0.0205133 0.0205113 0.020509 0.0205064 0.0205035 0.0205004 0.0204971 0.0204934 0.0204895 0.0204854 0.020481 0.0204763 0.0204714 0.0204662 0.0204607 0.020455 0.020449 0.0204428 0.0204363 0.0204296 0.0204225 0.0204153 0.0204077 0.0204 0.0203919 0.0203835 0.0203749 0.020366 0.0203569 0.0203474 0.0203377 0.0203277 0.0203174 0.0203068 0.0202959 0.0202848 0.0202734 0.0202617 0.0202498 0.0202376 0.0202252 0.0202125 0.0201997 0.0201866 0.0201734 0.0201601 0.0201465 0.0201329 0.0201191 0.0201052 0.0200912 0.0200772 0.020063 0.0200487 0.0200344 0.0200199 0.0200053 0.0199906 0.0199758 0.0199608 0.0199456 0.0199303 0.0199146 0.0198987 0.0198826 0.0198661 0.0198492 0.019832 0.0198144 0.0197963 0.0197777 0.0197587 0.0197391 0.0197189 0.0196982 0.019677 0.0196552 0.019633 0.0196104 0.0195876 0.0195647 0.019542 0.0195199 0.0194986 0.0194787 0.0194606 0.0194449 0.0194322 0.0194231 0.0194182 0.0194181 0.0194233 0.0194344 0.0194517 0.0194756 0.0195064 0.0195442 0.019589 0.0196407 0.0196988 0.0197624 0.0198302 0.0198999 0.0199679 0.0200291 0.0200781 0.0201099 0.0201161 0.0200854 0.0200395 0.0200451 0.0200421 0.0197488 0.0199554 0.0194444 0.0186889 0.0177995 0.0167059 0.0153844 0.0137788 0.0118552 0.00957387 0.00694663 0.00405408 0.000837218 -0.00326633 -0.00860253 -0.0145022 0 0 0 0 0 0 0 0 0 0 0 0 0 0 0 0 0 0 0 0 0 0 0 0 0 0 0 0 0 0 0 0 0 0 0 0 
0.020978 0.0210225 0.0210649 0.0211065 0.0211477 0.0211886 0.021229 0.0212687 0.0213076 0.0213454 0.0213821 0.0214178 0.0214522 0.0214853 0.0215172 0.0215478 0.0215771 0.0216051 0.0216317 0.021657 0.0216809 0.0217035 0.0217247 0.0217445 0.0217629 0.02178 0.0217956 0.0218099 0.0218228 0.0218342 0.0218443 0.021853 0.0218603 0.0218661 0.0218706 0.0218736 0.0218752 0.0218755 0.0218743 0.0218718 0.0218679 0.0218626 0.0218559 0.0218479 0.0218386 0.0218279 0.021816 0.0218028 0.0217883 0.0217726 0.0217556 0.0217375 0.0217183 0.0216979 0.0216764 0.0216539 0.0216303 0.0216058 0.0215803 0.0215539 0.0215267 0.0214986 0.0214697 0.0214401 0.0214098 0.0213789 0.0213473 0.0213153 0.0212827 0.0212497 0.0212163 0.0211826 0.0211486 0.0211144 0.02108 0.0210455 0.021011 0.0209764 0.020942 0.0209076 0.0208735 0.0208395 0.0208059 0.0207726 0.0207396 0.0207071 0.0206752 0.0206437 0.0206128 0.0205826 0.020553 0.0205241 0.020496 0.0204686 0.020442 0.0204163 0.0203914 0.0203673 0.0203441 0.0203219 0.0203005 0.0202801 0.0202605 0.0202419 0.0202241 0.0202073 0.0201913 0.0201763 0.020162 0.0201486 0.0201361 0.0201243 0.0201133 0.020103 0.0200935 0.0200847 0.0200765 0.0200689 0.020062 0.0200556 0.0200497 0.0200444 0.0200395 0.0200351 0.0200311 0.0200274 0.0200242 0.0200212 0.0200186 0.0200163 0.0200142 0.0200123 0.0200107 0.0200092 0.0200079 0.0200068 0.0200058 0.020005 0.0200042 0.0200036 0.020003 0.0200026 0.0200021 0.0200018 0.0200015 0.0200012 0.020001 0.0200008 0.0200007 0.0200006 0.0200005 0.0200004 0.0200003 0.0200002 0.0200002 0.0200002 0.0200001 0.0200001 0.0200001 0.0200001 0.02 0.02 0.02 0.02 0.02 0.02 0.02 0.02 0.02 0.02 0.02 0.02 0.02 0.02 0.02 0.02 0.02 0.02 0.02 0.02 0.02 0.02 0.02 0.02 0.02 0.02 0.02 0.02 0.02 0.02 0.02 0.02 0.02 0.02 0.02 0.02 0.02 0.02 0.02 0.02 0.02 0.02 0.02 0.02 0.02 0.02 0.02 0.02 0.02 0.02 0.02 0.02 0.02 0.02 0.02 0.02 0.02 0.02 0.02 0.02 0.02 0.02 0.02 0.02 0.02 0.02 0.02 0.0199999 0.0199999 0.0199999 0.0199999 0.0199999 0.0199999 0.0199999 0.0199999 0.0199999 0.0199998 0.0199998 0.0199998 0.0199998 0.0199998 0.0199997 0.0199997 0.0199997 0.0199997 0.0199996 0.0199996 0.0199995 0.0199995 0.0199994 0.0199994 0.0199993 0.0199993 0.0199992 0.0199991 0.0199991 0.019999 0.0199989 0.0199988 0.0199987 0.0199986 0.0199985 0.0199984 0.0199982 0.0199981 0.019998 0.0199978 0.0199977 0.0199975 0.0199973 0.0199971 0.0199969 0.0199967 0.0199965 0.0199963 0.019996 0.0199958 0.0199955 0.0199953 0.019995 0.0199947 0.0199944 0.0199941 0.0199938 0.0199934 0.0199931 0.0199927 0.0199924 0.019992 0.0199916 0.0199912 0.0199909 0.0199904 0.01999 0.0199896 0.0199892 0.0199888 0.0199884 0.0199879 0.0199875 0.0199871 0.0199867 0.0199862 0.0199858 0.0199854 0.019985 0.0199846 0.0199842 0.0199839 0.0199835 0.0199832 0.0199829 0.0199826 0.0199823 0.019982 0.0199818 0.0199816 0.0199814 0.0199813 0.0199812 0.0199812 0.0199811 0.0199812 0.0199812 0.0199813 0.0199815 0.0199817 0.0199819 0.0199823 0.0199827 0.0199831 0.0199836 0.0199842 0.0199849 0.0199857 0.0199865 0.0199874 0.0199884 0.0199895 0.0199907 0.019992 0.0199934 0.0199948 0.0199964 0.0199981 0.0199999 0.0200018 0.0200038 0.0200059 0.0200081 0.0200105 0.020013 0.0200156 0.0200183 0.0200211 0.0200241 0.0200272 0.0200304 0.0200337 0.0200372 0.0200408 0.0200446 0.0200484 0.0200524 0.0200565 0.0200608 0.0200652 0.0200697 0.0200744 0.0200791 0.020084 0.0200891 0.0200942 0.0200995 0.0201049 0.0201104 0.020116 0.0201217 0.0201275 0.0201335 0.0201395 0.0201457 0.0201519 0.0201582 0.0201646 0.0201711 0.0201777 0.0201844 0.0201911 0.0201978 0.0202047 0.0202116 0.0202185 0.0202255 0.0202325 0.0202396 0.0202467 0.0202538 0.0202609 0.0202681 0.0202753 0.0202824 0.0202896 0.0202968 0.020304 0.0203112 0.0203183 0.0203255 0.0203326 0.0203397 0.0203467 0.0203537 0.0203606 0.0203674 0.0203742 0.0203809 0.0203875 0.020394 0.0204004 0.0204067 0.0204128 0.0204189 0.0204248 0.0204306 0.0204362 0.0204417 0.0204471 0.0204522 0.0204572 0.0204621 0.0204667 0.0204712 0.0204754 0.0204795 0.0204834 0.020487 0.0204905 0.0204937 0.0204967 0.0204995 0.020502 0.0205043 0.0205064 0.0205082 0.0205097 0.0205111 0.0205121 0.0205129 0.0205135 0.0205138 0.0205138 0.0205135 0.020513 0.0205123 0.0205112 0.0205099 0.0205084 0.0205065 0.0205044 0.020502 0.0204994 0.0204965 0.0204933 0.0204899 0.0204862 0.0204823 0.0204781 0.0204736 0.0204689 0.0204639 0.0204587 0.0204533 0.0204475 0.0204416 0.0204353 0.0204289 0.0204221 0.0204152 0.0204079 0.0204004 0.0203927 0.0203847 0.0203764 0.0203679 0.0203591 0.02035 0.0203407 0.0203311 0.0203212 0.020311 0.0203006 0.0202899 0.0202789 0.0202677 0.0202562 0.0202445 0.0202325 0.0202203 0.0202079 0.0201952 0.0201824 0.0201695 0.0201563 0.020143 0.0201296 0.0201161 0.0201025 0.0200887 0.0200749 0.0200609 0.0200469 0.0200328 0.0200186 0.0200042 0.0199897 0.0199751 0.0199603 0.0199453 0.0199301 0.0199147 0.019899 0.0198829 0.0198666 0.0198499 0.0198328 0.0198153 0.0197973 0.0197788 0.0197599 0.0197404 0.0197203 0.0196997 0.0196785 0.0196568 0.0196347 0.0196122 0.0195894 0.0195665 0.0195439 0.0195217 0.0195004 0.0194804 0.0194621 0.0194461 0.019433 0.0194232 0.0194175 0.0194162 0.01942 0.0194292 0.0194443 0.0194655 0.0194931 0.0195272 0.0195677 0.0196145 0.0196672 0.0197249 0.0197863 0.0198492 0.0199103 0.0199646 0.0200071 0.0200351 0.0200464 0.0200351 0.0200154 0.0200268 0.0200762 0.0200355 0.0197374 0.0192338 0.0185611 0.0177363 0.0166701 0.0153684 0.0137878 0.0118999 0.00968601 0.00715909 0.00433318 0.00108082 -0.00271138 -0.00778705 -0.0142653 -0.0126858 0 0 0 0 0 0 0 0 0 0 0 0 0 0 0 0 0 0 0 0 0 0 0 0 0 0 0 0 0 0 0 0 0 0 -1.73472e-18 
0.020978 0.0210227 0.0210658 0.0211078 0.0211492 0.0211901 0.0212304 0.02127 0.0213087 0.0213465 0.0213832 0.0214188 0.0214531 0.0214863 0.0215182 0.0215488 0.021578 0.021606 0.0216326 0.0216579 0.0216818 0.0217043 0.0217255 0.0217453 0.0217637 0.0217807 0.0217964 0.0218106 0.0218235 0.0218349 0.021845 0.0218536 0.0218609 0.0218667 0.0218711 0.0218742 0.0218758 0.021876 0.0218748 0.0218722 0.0218683 0.021863 0.0218563 0.0218483 0.0218389 0.0218282 0.0218163 0.021803 0.0217885 0.0217728 0.0217558 0.0217377 0.0217184 0.021698 0.0216765 0.021654 0.0216304 0.0216058 0.0215803 0.0215539 0.0215266 0.0214985 0.0214696 0.0214399 0.0214096 0.0213786 0.0213471 0.021315 0.0212824 0.0212494 0.0212159 0.0211822 0.0211482 0.0211139 0.0210795 0.021045 0.0210104 0.0209759 0.0209414 0.020907 0.0208728 0.0208389 0.0208052 0.0207719 0.0207389 0.0207064 0.0206744 0.0206429 0.0206121 0.0205818 0.0205522 0.0205233 0.0204952 0.0204678 0.0204412 0.0204155 0.0203906 0.0203666 0.0203434 0.0203212 0.0202998 0.0202794 0.0202598 0.0202412 0.0202235 0.0202067 0.0201907 0.0201757 0.0201615 0.0201481 0.0201356 0.0201238 0.0201129 0.0201026 0.0200931 0.0200843 0.0200761 0.0200686 0.0200617 0.0200553 0.0200495 0.0200441 0.0200393 0.0200349 0.0200309 0.0200273 0.020024 0.0200211 0.0200185 0.0200161 0.0200141 0.0200122 0.0200106 0.0200091 0.0200079 0.0200068 0.0200058 0.0200049 0.0200042 0.0200036 0.020003 0.0200025 0.0200021 0.0200018 0.0200015 0.0200012 0.020001 0.0200008 0.0200007 0.0200006 0.0200005 0.0200004 0.0200003 0.0200002 0.0200002 0.0200002 0.0200001 0.0200001 0.0200001 0.0200001 0.02 0.02 0.02 0.02 0.02 0.02 0.02 0.02 0.02 0.02 0.02 0.02 0.02 0.02 0.02 0.02 0.02 0.02 0.02 0.02 0.02 0.02 0.02 0.02 0.02 0.02 0.02 0.02 0.02 0.02 0.02 0.02 0.02 0.02 0.02 0.02 0.02 0.02 0.02 0.02 0.02 0.02 0.02 0.02 0.02 0.02 0.02 0.02 0.02 0.02 0.02 0.02 0.02 0.02 0.02 0.02 0.02 0.02 0.02 0.02 0.02 0.02 0.02 0.02 0.02 0.02 0.02 0.0199999 0.0199999 0.0199999 0.0199999 0.0199999 0.0199999 0.0199999 0.0199999 0.0199999 0.0199998 0.0199998 0.0199998 0.0199998 0.0199998 0.0199997 0.0199997 0.0199997 0.0199997 0.0199996 0.0199996 0.0199995 0.0199995 0.0199994 0.0199994 0.0199993 0.0199993 0.0199992 0.0199991 0.0199991 0.019999 0.0199989 0.0199988 0.0199987 0.0199986 0.0199985 0.0199984 0.0199983 0.0199981 0.019998 0.0199978 0.0199977 0.0199975 0.0199973 0.0199971 0.0199969 0.0199967 0.0199965 0.0199963 0.0199961 0.0199958 0.0199956 0.0199953 0.019995 0.0199947 0.0199944 0.0199941 0.0199938 0.0199935 0.0199931 0.0199928 0.0199924 0.0199921 0.0199917 0.0199913 0.0199909 0.0199905 0.0199901 0.0199897 0.0199893 0.0199889 0.0199884 0.019988 0.0199876 0.0199872 0.0199868 0.0199863 0.0199859 0.0199855 0.0199851 0.0199847 0.0199843 0.019984 0.0199836 0.0199833 0.019983 0.0199827 0.0199824 0.0199822 0.0199819 0.0199817 0.0199816 0.0199814 0.0199813 0.0199813 0.0199813 0.0199813 0.0199814 0.0199815 0.0199817 0.0199819 0.0199821 0.0199825 0.0199829 0.0199833 0.0199839 0.0199845 0.0199851 0.0199859 0.0199867 0.0199876 0.0199887 0.0199897 0.0199909 0.0199922 0.0199936 0.0199951 0.0199967 0.0199983 0.0200001 0.020002 0.020004 0.0200062 0.0200084 0.0200107 0.0200132 0.0200158 0.0200185 0.0200214 0.0200243 0.0200274 0.0200306 0.020034 0.0200374 0.020041 0.0200447 0.0200486 0.0200526 0.0200567 0.0200609 0.0200653 0.0200698 0.0200744 0.0200791 0.020084 0.020089 0.0200941 0.0200993 0.0201047 0.0201101 0.0201157 0.0201213 0.0201271 0.020133 0.0201389 0.020145 0.0201511 0.0201574 0.0201637 0.0201701 0.0201766 0.0201831 0.0201897 0.0201964 0.0202031 0.0202099 0.0202167 0.0202236 0.0202306 0.0202375 0.0202445 0.0202515 0.0202586 0.0202657 0.0202728 0.0202799 0.020287 0.0202941 0.0203012 0.0203083 0.0203154 0.0203224 0.0203294 0.0203364 0.0203433 0.0203502 0.0203569 0.0203637 0.0203703 0.0203769 0.0203834 0.0203898 0.0203961 0.0204022 0.0204083 0.0204142 0.02042 0.0204257 0.0204312 0.0204366 0.0204418 0.0204469 0.0204518 0.0204565 0.020461 0.0204654 0.0204695 0.0204735 0.0204772 0.0204807 0.0204841 0.0204872 0.0204901 0.0204927 0.0204951 0.0204973 0.0204992 0.0205009 0.0205024 0.0205036 0.0205045 0.0205052 0.0205057 0.0205058 0.0205057 0.0205054 0.0205048 0.0205039 0.0205027 0.0205013 0.0204997 0.0204977 0.0204955 0.020493 0.0204903 0.0204873 0.0204841 0.0204806 0.0204768 0.0204728 0.0204686 0.020464 0.0204593 0.0204543 0.020449 0.0204435 0.0204378 0.0204318 0.0204256 0.0204191 0.0204124 0.0204055 0.0203983 0.0203908 0.0203831 0.0203752 0.020367 0.0203586 0.0203499 0.0203409 0.0203317 0.0203223 0.0203125 0.0203025 0.0202923 0.0202818 0.020271 0.02026 0.0202487 0.0202372 0.0202255 0.0202135 0.0202014 0.020189 0.0201765 0.0201638 0.020151 0.020138 0.0201249 0.0201117 0.0200983 0.0200849 0.0200714 0.0200577 0.020044 0.0200302 0.0200162 0.0200021 0.0199879 0.0199736 0.019959 0.0199443 0.0199293 0.0199141 0.0198986 0.0198828 0.0198666 0.0198501 0.0198331 0.0198158 0.0197979 0.0197796 0.0197608 0.0197414 0.0197214 0.0197009 0.0196798 0.0196582 0.0196362 0.0196137 0.019591 0.0195682 0.0195455 0.0195233 0.0195019 0.0194817 0.0194631 0.0194467 0.019433 0.0194224 0.0194155 0.0194129 0.0194148 0.0194218 0.0194341 0.019452 0.0194756 0.0195051 0.0195404 0.0195813 0.0196273 0.0196776 0.0197312 0.0197858 0.0198383 0.0198841 0.0199192 0.019943 0.0199589 0.0199668 0.0199641 0.0199653 0.0199409 0.0198378 0.0195479 0.0190872 0.0184558 0.0176452 0.0166175 0.0153503 0.0138176 0.0119955 0.00988202 0.00746528 0.00473802 0.00160176 -0.00202705 -0.00617395 -0.0124672 -0.020784 0 0 0 0 0 0 0 0 0 0 0 0 0 0 0 0 0 0 0 0 0 0 0 0 0 0 0 0 0 0 0 0 0 0 -2.60209e-18 