# vtk DataFile Version 2.0
iteration 1647
ASCII

DATASET STRUCTURED_POINTS
DIMENSIONS 621 64 1
ORIGIN 0 0 0
SPACING 0.00161031 0.00161031 0.00161031

POINT_DATA 39744
SCALARS P float 1
LOOKUP_TABLE default
0 0 0 0 0 0 0 0 0 0 0 0 0 0 0 0 0 0 0 0 0 0 0 0 0 0 0 0 0 0 0 0 0 0 0 0 0 0 0 0 0 0 0 0 0 0 0 0 0 0 0 0 0 0 0 0 0 0 0 0 0 0 0 0 0 0 0 0 0 0 0 0 0 0 0 0 0 0 0 0 0 0 0 0 0 0 0 0 0 0 0 0 0 0 0 0 0 0 0 0 0 0 0 0 0 0 0 0 0 0 0 0 0 0 0 0 0 0 0 0 0 0 0 0 0 0 0 0 0 0 0 0 0 0 0 0 0 0 0 0 0 0 0 0 0 0 0 0 0 0 0 0 0 0 0 0 0 0 0 0 0 0 0 0 0 0 0 0 0 0 0 0 0 0 0 0 0 0 0 0 0 0 0 0 0 0 0 0 0 0 0 0 0 0 0 0 0 0 0 0 0 0 0 0 0 0 0 0 0 0 0 0 0 0 0 0 0 0 0 0 0 0 0 0 0 0 0 0 0 0 0 0 0 0 0 0 0 0 0 0 0 0 0 0 0 0 0 0 0 0 0 0 0 0 0 0 0 0 0 0 0 0 0 0 0 0 0 0 0 0 0 0 0 0 0 0 0 0 0 0 0 0 0 0 0 0 0 0 0 0 0 0 0 0 0 0 0 0 0 0 0 0 0 0 0 0 0 0 0 0 0 0 0 0 0 0 0 0 0 0 0 0 0 0 0 0 0 0 0 0 0 0 0 0 0 0 0 0 0 0 0 0 0 0 0 0 0 0 0 0 0 0 0 0 0 0 0 0 0 0 0 0 0 0 0 0 0 0 0 0 0 0 0 0 0 0 0 0 0 0 0 0 0 0 0 0 0 0 0 0 0 0 0 0 0 0 0 0 0 0 0 0 0 0 0 0 0 0 0 0 0 0 0 0 0 0 0 0 0 0 0 0 0 0 0 0 0 0 0 0 0 0 0 0 0 0 0 0 0 0 0 0 0 0 0 0 0 0 0 0 0 0 0 0 0 0 0 0 0 0 0 0 0 0 0 0 0 0 0 0 0 0 0 0 0 0 0 0 0 0 0 0 0 0 0 0 0 0 0 0 0 0 0 0 0 0 0 0 0 0 0 0 0 0 0 0 0 0 0 0 0 0 0 0 0 0 0 0 0 0 0 0 0 0 0 0 0 0 0 0 0 0 0 0 0 0 0 0 0 0 0 0 0 0 0 0 0 0 0 0 0 0 0 0 0 0 0 0 0 0 0 0 0 0 0 0 0 0 0 0 0 0 0 0 0 0 0 0 0 0 0 0 0 0 0 0 0 0 0 0 0 0 0 0 0 0 0 0 0 0 0 0 0 0 0 0 0 0 0 0 0 0 0 0 0 0 0 0 0 0 0 
0.02 0.02 0.02 0.02 0.02 0.02 0.02 0.02 0.02 0.02 0.02 0.02 0.02 0.02 0.02 0.02 0.02 0.02 0.02 0.02 0.02 0.02 0.02 0.02 0.02 0.02 0.02 0.02 0.02 0.02 0.02 0.02 0.02 0.02 0.02 0.02 0.02 0.02 0.02 0.02 0.02 0.02 0.02 0.02 0.02 0.02 0.02 0.02 0.02 0.02 0.02 0.02 0.02 0.02 0.02 0.02 0.02 0.02 0.02 0.02 0.02 0.02 0.02 0.02 0.02 0.02 0.02 0.02 0.02 0.02 0.02 0.02 0.02 0.02 0.02 0.02 0.02 0.02 0.02 0.02 0.02 0.02 0.02 0.02 0.02 0.02 0.02 0.02 0.02 0.02 0.02 0.02 0.02 0.02 0.02 0.02 0.02 0.02 0.02 0.02 0.02 0.02 0.02 0.02 0.02 0.02 0.02 0.02 0.02 0.02 0.02 0.02 0.02 0.02 0.02 0.02 0.0200001 0.0200001 0.0200001 0.0200001 0.0200001 0.0200001 0.0200001 0.0200001 0.0200001 0.0200001 0.0200002 0.0200002 0.0200002 0.0200002 0.0200002 0.0200003 0.0200003 0.0200003 0.0200004 0.0200004 0.0200004 0.0200005 0.0200005 0.0200006 0.0200007 0.0200007 0.0200008 0.0200009 0.020001 0.0200011 0.0200012 0.0200013 0.0200014 0.0200015 0.0200017 0.0200018 0.020002 0.0200022 0.0200024 0.0200026 0.0200028 0.0200031 0.0200033 0.0200036 0.0200039 0.0200043 0.0200046 0.020005 0.0200055 0.0200059 0.0200064 0.0200069 0.0200075 0.0200081 0.0200087 0.0200094 0.0200101 0.0200109 0.0200117 0.0200125 0.0200134 0.0200144 0.0200154 0.0200164 0.0200176 0.0200187 0.02002 0.0200212 0.0200226 0.0200239 0.0200254 0.0200269 0.0200284 0.02003 0.0200316 0.0200333 0.020035 0.0200367 0.0200385 0.0200403 0.0200421 0.0200439 0.0200457 0.0200475 0.0200493 0.020051 0.0200527 0.0200544 0.020056 0.0200575 0.0200589 0.0200602 0.0200615 0.0200625 0.0200635 0.0200642 0.0200648 0.0200652 0.0200654 0.0200653 0.020065 0.0200645 0.0200636 0.0200624 0.0200609 0.0200588 0.0200564 0.0200537 0.0200507 0.0200473 0.0200435 0.0200393 0.0200347 0.0200295 0.020024 0.0200179 0.0200114 0.0200044 0.019997 0.019989 0.0199805 0.0199715 0.0199621 0.0199521 0.0199416 0.0199307 0.0199192 0.0199073 0.0198949 0.019882 0.0198687 0.0198549 0.0198408 0.0198262 0.0198112 0.0197959 0.0197802 0.0197642 0.019748 0.0197314 0.0197146 0.0196976 0.0196805 0.0196631 0.0196457 0.0196282 0.0196106 0.0195931 0.0195755 0.0195581 0.0195407 0.0195235 0.0195064 0.0194896 0.019473 0.0194568 0.0194408 0.0194252 0.01941 0.0193953 0.0193809 0.0193671 0.0193538 0.0193411 0.0193289 0.0193173 0.0193062 0.0192958 0.0192861 0.0192769 0.0192684 0.0192605 0.0192533 0.019247 0.0192421 0.0192375 0.0192348 0.019233 0.0192321 0.0192322 0.0192331 0.0192349 0.0192376 0.0192412 0.0192456 0.0192508 0.0192568 0.0192636 0.0192711 0.0192793 0.0192882 0.0192977 0.0193077 0.0193183 0.0193294 0.019341 0.0193529 0.0193653 0.0193779 0.0193908 0.019404 0.0194173 0.0194308 0.0194444 0.0194581 0.0194718 0.0194856 0.0194993 0.019513 0.0195266 0.0195401 0.0195535 0.0195668 0.0195799 0.0195928 0.0196056 0.0196182 0.0196306 0.0196427 0.0196547 0.0196664 0.0196779 0.0196891 0.0197 0.0197107 0.0197211 0.0197311 0.0197408 0.01975 0.0197588 0.0197671 0.0197748 0.0197819 0.0197882 0.0197937 0.0197983 0.0198018 0.0198042 0.0198053 0.019805 0.0198031 0.0197995 0.0197942 0.0197869 0.0197775 0.0197659 0.0197519 0.0197355 0.0197164 0.0196945 0.0196697 0.0196417 0.0196104 0.0195756 0.019537 0.0194943 0.0194473 0.0193957 0.0193392 0.0192775 0.0192105 0.0191379 0.0190598 0.0189761 0.0188869 0.0187923 0.0186923 0.0185871 0.0184766 0.0183605 0.0182385 0.0181096 0.0179725 0.0178251 0.0176645 0.0174913 0.0173373 0.0174617 0.0198932 0 0 0 0 0 0 0 0 0 0 0 0 0 0 0 0 0 0 0 0 0 0 0 0 0 0 0 0 0 0 0 0 0 0 0 0 0 0 0 0 0 0 0 0 0 0 0 0 0 0 0 0 0 0 0 0 0 0 0 0 0 0 0 0 0 0 0 0 0 0 0 0 0 0 0 0 0 0 0 0 0 0 0 0 0 0 0 0 0 0 0 0 0 0 0 0 0 0 0 0 0 0 0 0 0 0 0 0 0 0 0 0 0 0 0 0 0 0 0 0 0 0 0 0 0 0 0 0 0 0 0 0 0 0 0 0 0 0 0 0 0 0 0 0 0 0 0 0 0 0 0 0 0 0 0 0 0 0 0 0 0 0 0 0 0 0 0 0 0 0 0 0 0 0 0 0 0 0 0 0 0 0 0 0 0 0 0 0 0 0 0 0 0 0 0 0 0 0 0 0 0 0 0 0 0 0 0 0 0 0 0 0 0 0 0 0 0 0 0 0 0 0 0 0 0 0 
0.02 0.02 0.02 0.02 0.02 0.02 0.02 0.02 0.02 0.02 0.02 0.02 0.02 0.02 0.02 0.02 0.02 0.02 0.02 0.02 0.02 0.02 0.02 0.02 0.02 0.02 0.02 0.02 0.02 0.02 0.02 0.02 0.02 0.02 0.02 0.02 0.02 0.02 0.02 0.02 0.02 0.02 0.02 0.02 0.02 0.02 0.02 0.02 0.02 0.02 0.02 0.02 0.02 0.02 0.02 0.02 0.02 0.02 0.02 0.02 0.02 0.02 0.02 0.02 0.02 0.02 0.02 0.02 0.02 0.02 0.02 0.02 0.02 0.02 0.02 0.02 0.02 0.02 0.02 0.02 0.02 0.02 0.02 0.02 0.02 0.02 0.02 0.02 0.02 0.02 0.02 0.02 0.02 0.02 0.02 0.02 0.02 0.02 0.02 0.02 0.02 0.02 0.02 0.02 0.02 0.02 0.02 0.02 0.02 0.02 0.02 0.02 0.02 0.02 0.02 0.02 0.0200001 0.0200001 0.0200001 0.0200001 0.0200001 0.0200001 0.0200001 0.0200001 0.0200001 0.0200001 0.0200002 0.0200002 0.0200002 0.0200002 0.0200002 0.0200003 0.0200003 0.0200003 0.0200004 0.0200004 0.0200004 0.0200005 0.0200005 0.0200006 0.0200006 0.0200007 0.0200008 0.0200009 0.0200009 0.020001 0.0200011 0.0200013 0.0200014 0.0200015 0.0200016 0.0200018 0.020002 0.0200021 0.0200023 0.0200026 0.0200028 0.020003 0.0200033 0.0200036 0.0200039 0.0200042 0.0200046 0.020005 0.0200054 0.0200059 0.0200063 0.0200069 0.0200074 0.020008 0.0200086 0.0200093 0.02001 0.0200108 0.0200116 0.0200124 0.0200133 0.0200143 0.0200153 0.0200163 0.0200174 0.0200186 0.0200198 0.0200211 0.0200224 0.0200238 0.0200252 0.0200267 0.0200282 0.0200298 0.0200315 0.0200331 0.0200348 0.0200365 0.0200383 0.0200401 0.0200419 0.0200437 0.0200455 0.0200473 0.0200491 0.0200508 0.0200525 0.0200542 0.0200558 0.0200573 0.0200587 0.0200601 0.0200613 0.0200624 0.0200633 0.0200641 0.0200647 0.0200651 0.0200653 0.0200653 0.020065 0.0200645 0.0200637 0.0200625 0.020061 0.0200591 0.0200568 0.0200542 0.0200513 0.0200479 0.0200442 0.02004 0.0200354 0.0200304 0.0200249 0.020019 0.0200126 0.0200057 0.0199983 0.0199904 0.0199821 0.0199732 0.0199638 0.019954 0.0199436 0.0199328 0.0199214 0.0199096 0.0198973 0.0198846 0.0198714 0.0198578 0.0198437 0.0198293 0.0198144 0.0197992 0.0197837 0.0197678 0.0197516 0.0197352 0.0197185 0.0197016 0.0196845 0.0196673 0.0196499 0.0196325 0.019615 0.0195974 0.0195799 0.0195625 0.0195451 0.0195279 0.0195108 0.019494 0.0194774 0.019461 0.0194449 0.0194292 0.0194139 0.019399 0.0193845 0.0193704 0.0193569 0.0193439 0.0193314 0.0193194 0.0193081 0.0192974 0.0192873 0.0192779 0.0192694 0.0192617 0.0192547 0.0192485 0.0192438 0.0192401 0.0192373 0.0192354 0.0192345 0.0192344 0.0192352 0.0192369 0.0192395 0.019243 0.0192473 0.0192524 0.0192583 0.019265 0.0192724 0.0192805 0.0192892 0.0192986 0.0193086 0.0193191 0.0193302 0.0193416 0.0193535 0.0193658 0.0193783 0.0193912 0.0194043 0.0194176 0.019431 0.0194446 0.0194582 0.0194719 0.0194856 0.0194993 0.0195129 0.0195265 0.01954 0.0195534 0.0195666 0.0195797 0.0195926 0.0196054 0.019618 0.0196303 0.0196425 0.0196544 0.0196661 0.0196776 0.0196888 0.0196997 0.0197104 0.0197207 0.0197307 0.0197404 0.0197496 0.0197584 0.0197667 0.0197744 0.0197815 0.0197878 0.0197933 0.0197979 0.0198014 0.0198038 0.0198049 0.0198046 0.0198028 0.0197993 0.019794 0.0197867 0.0197774 0.0197659 0.019752 0.0197356 0.0197166 0.0196949 0.0196701 0.0196423 0.0196111 0.0195764 0.0195379 0.0194953 0.0194483 0.0193967 0.0193402 0.0192785 0.0192115 0.0191389 0.0190606 0.0189767 0.0188872 0.0187922 0.0186917 0.0185858 0.0184744 0.0183574 0.0182342 0.018104 0.0179655 0.0178168 0.0176566 0.0174906 0.0173638 0.0174008 0.0177132 0.0173484 0.0167841 0.0164378 0.0160596 0.0155749 0.0148709 0.0140888 0.0135728 0.0143343 0 0 0 0 0 0 0 0 0 0 0 0 0 0 0 0 0 0 0 0 0 0 0 0 0 0 0 0 0 0 0 0 0 0 0 0 0 0 0 0 0 0 0 0 0 0 0 0 0 0 0 0 0 0 0 0 0 0 0 0 0 0 0 0 0 0 0 0 0 0 0 0 0 0 0 0 0 0 0 0 0 0 0 0 0 0 0 0 0 0 0 0 0 0 0 0 0 0 0 0 0 0 0 0 0 0 0 0 0 0 0 0 0 0 0 0 0 0 0 0 0 0 0 0 0 0 0 0 0 0 0 0 0 0 0 0 0 0 0 0 0 0 0 0 0 0 0 0 0 0 0 0 0 0 0 0 0 0 0 0 0 0 0 0 0 0 0 0 0 0 0 0 0 0 0 0 0 0 0 0 0 0 0 0 0 0 0 0 0 0 0 0 0 0 0 0 0 0 0 0 0 0 0 0 0 0 0 0 0 0 0 0 0 0 0 0 0 
0.02 0.02 0.02 0.02 0.02 0.02 0.02 0.02 0.02 0.02 0.02 0.02 0.02 0.02 0.02 0.02 0.02 0.02 0.02 0.02 0.02 0.02 0.02 0.02 0.02 0.02 0.02 0.02 0.02 0.02 0.02 0.02 0.02 0.02 0.02 0.02 0.02 0.02 0.02 0.02 0.02 0.02 0.02 0.02 0.02 0.02 0.02 0.02 0.02 0.02 0.02 0.02 0.02 0.02 0.02 0.02 0.02 0.02 0.02 0.02 0.02 0.02 0.02 0.02 0.02 0.02 0.02 0.02 0.02 0.02 0.02 0.02 0.02 0.02 0.02 0.02 0.02 0.02 0.02 0.02 0.02 0.02 0.02 0.02 0.02 0.02 0.02 0.02 0.02 0.02 0.02 0.02 0.02 0.02 0.02 0.02 0.02 0.02 0.02 0.02 0.02 0.02 0.02 0.02 0.02 0.02 0.02 0.02 0.02 0.02 0.02 0.02 0.02 0.02 0.02 0.02 0.0200001 0.0200001 0.0200001 0.0200001 0.0200001 0.0200001 0.0200001 0.0200001 0.0200001 0.0200001 0.0200002 0.0200002 0.0200002 0.0200002 0.0200002 0.0200003 0.0200003 0.0200003 0.0200004 0.0200004 0.0200004 0.0200005 0.0200005 0.0200006 0.0200006 0.0200007 0.0200008 0.0200009 0.0200009 0.020001 0.0200011 0.0200012 0.0200014 0.0200015 0.0200016 0.0200018 0.0200019 0.0200021 0.0200023 0.0200025 0.0200028 0.020003 0.0200033 0.0200036 0.0200039 0.0200042 0.0200046 0.0200049 0.0200054 0.0200058 0.0200063 0.0200068 0.0200073 0.0200079 0.0200086 0.0200092 0.0200099 0.0200107 0.0200115 0.0200123 0.0200132 0.0200142 0.0200152 0.0200162 0.0200173 0.0200185 0.0200197 0.0200209 0.0200222 0.0200236 0.020025 0.0200265 0.020028 0.0200296 0.0200312 0.0200329 0.0200346 0.0200363 0.020038 0.0200398 0.0200416 0.0200434 0.0200452 0.020047 0.0200488 0.0200505 0.0200522 0.0200539 0.0200555 0.020057 0.0200584 0.0200598 0.020061 0.0200621 0.0200631 0.0200639 0.0200645 0.0200649 0.0200651 0.0200651 0.0200649 0.0200644 0.0200636 0.0200625 0.020061 0.0200592 0.020057 0.0200544 0.0200515 0.0200482 0.0200446 0.0200405 0.020036 0.020031 0.0200256 0.0200198 0.0200135 0.0200067 0.0199994 0.0199917 0.0199834 0.0199747 0.0199655 0.0199558 0.0199455 0.0199348 0.0199237 0.019912 0.0198999 0.0198873 0.0198743 0.0198608 0.0198469 0.0198327 0.019818 0.019803 0.0197876 0.0197719 0.0197559 0.0197396 0.0197231 0.0197063 0.0196894 0.0196723 0.0196551 0.0196377 0.0196203 0.0196029 0.0195855 0.0195681 0.0195508 0.0195336 0.0195166 0.0194997 0.019483 0.0194666 0.0194505 0.0194346 0.0194191 0.019404 0.0193893 0.019375 0.0193612 0.0193479 0.0193352 0.019323 0.0193114 0.0193005 0.0192905 0.0192811 0.0192726 0.0192649 0.0192584 0.0192528 0.0192481 0.0192443 0.0192414 0.0192395 0.0192384 0.0192382 0.0192389 0.0192405 0.019243 0.0192463 0.0192505 0.0192555 0.0192613 0.0192678 0.0192751 0.0192831 0.0192917 0.019301 0.0193108 0.0193212 0.0193321 0.0193435 0.0193552 0.0193673 0.0193798 0.0193925 0.0194055 0.0194186 0.019432 0.0194454 0.0194589 0.0194725 0.0194861 0.0194997 0.0195132 0.0195267 0.0195401 0.0195533 0.0195665 0.0195795 0.0195923 0.019605 0.0196175 0.0196298 0.0196418 0.0196537 0.0196653 0.0196767 0.0196879 0.0196987 0.0197093 0.0197196 0.0197296 0.0197392 0.0197484 0.0197571 0.0197654 0.0197731 0.0197802 0.0197865 0.019792 0.0197966 0.0198002 0.0198026 0.0198038 0.0198035 0.0198018 0.0197984 0.0197932 0.019786 0.0197768 0.0197654 0.0197517 0.0197355 0.0197166 0.019695 0.0196705 0.0196428 0.0196119 0.0195773 0.019539 0.0194966 0.0194498 0.0193983 0.0193419 0.0192803 0.0192133 0.0191406 0.0190623 0.0189782 0.0188884 0.018793 0.018692 0.0185854 0.0184732 0.0183551 0.0182308 0.0180993 0.0179596 0.0178105 0.0176541 0.0175066 0.0174161 0.0174182 0.0174391 0.0171634 0.0167581 0.0163842 0.0159643 0.0154411 0.0147835 0.0140946 0.0135317 0.0131209 0.0121611 0.0109364 0.00965859 0.00826326 0.00769969 0.00564048 0 0 0 0 0 0 0 0 0 0 0 0 0 0 0 0 0 0 0 0 0 0 0 0 0 0 0 0 0 0 0 0 0 0 0 0 0 0 0 0 0 0 0 0 0 0 0 0 0 0 0 0 0 0 0 0 0 0 0 0 0 0 0 0 0 0 0 0 0 0 0 0 0 0 0 0 0 0 0 0 0 0 0 0 0 0 0 0 0 0 0 0 0 0 0 0 0 0 0 0 0 0 0 0 0 0 0 0 0 0 0 0 0 0 0 0 0 0 0 0 0 0 0 0 0 0 0 0 0 0 0 0 0 0 0 0 0 0 0 0 0 0 0 0 0 0 0 0 0 0 0 0 0 0 0 0 0 0 0 0 0 0 0 0 0 0 0 0 0 0 0 0 0 0 0 0 0 0 0 0 0 0 0 0 0 0 0 0 0 0 0 0 0 0 0 0 0 0 0 0 0 0 0 0 0 0 0 0 0 0 -4.33681e-19 
0.02 0.02 0.02 0.02 0.02 0.02 0.02 0.02 0.02 0.02 0.02 0.02 0.02 0.02 0.02 0.02 0.02 0.02 0.02 0.02 0.02 0.02 0.02 0.02 0.02 0.02 0.02 0.02 0.02 0.02 0.02 0.02 0.02 0.02 0.02 0.02 0.02 0.02 0.02 0.02 0.02 0.02 0.02 0.02 0.02 0.02 0.02 0.02 0.02 0.02 0.02 0.02 0.02 0.02 0.02 0.02 0.02 0.02 0.02 0.02 0.02 0.02 0.02 0.02 0.02 0.02 0.02 0.02 0.02 0.02 0.02 0.02 0.02 0.02 0.02 0.02 0.02 0.02 0.02 0.02 0.02 0.02 0.02 0.02 0.02 0.02 0.02 0.02 0.02 0.02 0.02 0.02 0.02 0.02 0.02 0.02 0.02 0.02 0.02 0.02 0.02 0.02 0.02 0.02 0.02 0.02 0.02 0.02 0.02 0.02 0.02 0.02 0.02 0.02 0.02 0.02 0.02 0.0200001 0.0200001 0.0200001 0.0200001 0.0200001 0.0200001 0.0200001 0.0200001 0.0200001 0.0200002 0.0200002 0.0200002 0.0200002 0.0200002 0.0200003 0.0200003 0.0200003 0.0200003 0.0200004 0.0200004 0.0200005 0.0200005 0.0200006 0.0200006 0.0200007 0.0200008 0.0200008 0.0200009 0.020001 0.0200011 0.0200012 0.0200013 0.0200015 0.0200016 0.0200017 0.0200019 0.0200021 0.0200023 0.0200025 0.0200027 0.020003 0.0200032 0.0200035 0.0200038 0.0200041 0.0200045 0.0200049 0.0200053 0.0200057 0.0200062 0.0200067 0.0200072 0.0200078 0.0200084 0.0200091 0.0200098 0.0200105 0.0200113 0.0200122 0.020013 0.020014 0.020015 0.020016 0.0200171 0.0200182 0.0200194 0.0200207 0.020022 0.0200233 0.0200248 0.0200262 0.0200277 0.0200293 0.0200309 0.0200325 0.0200342 0.0200359 0.0200376 0.0200394 0.0200412 0.020043 0.0200448 0.0200465 0.0200483 0.02005 0.0200517 0.0200534 0.020055 0.0200565 0.0200579 0.0200593 0.0200605 0.0200616 0.0200626 0.0200634 0.020064 0.0200645 0.0200647 0.0200647 0.0200645 0.020064 0.0200633 0.0200622 0.0200608 0.0200591 0.0200569 0.0200544 0.0200516 0.0200484 0.0200448 0.0200408 0.0200364 0.0200316 0.0200263 0.0200206 0.0200144 0.0200078 0.0200006 0.019993 0.019985 0.0199764 0.0199673 0.0199578 0.0199478 0.0199373 0.0199263 0.0199148 0.0199029 0.0198906 0.0198778 0.0198645 0.0198509 0.0198368 0.0198224 0.0198075 0.0197924 0.0197769 0.0197611 0.0197451 0.0197287 0.0197122 0.0196954 0.0196785 0.0196615 0.0196443 0.019627 0.0196097 0.0195924 0.0195751 0.0195579 0.0195407 0.0195236 0.0195067 0.01949 0.0194735 0.0194572 0.0194412 0.0194255 0.0194102 0.0193953 0.0193808 0.0193668 0.0193534 0.0193404 0.0193282 0.0193166 0.0193058 0.0192957 0.0192865 0.0192782 0.0192708 0.0192643 0.0192586 0.0192538 0.0192499 0.0192469 0.0192448 0.0192436 0.0192433 0.0192438 0.0192453 0.0192476 0.0192508 0.0192548 0.0192597 0.0192653 0.0192717 0.0192788 0.0192866 0.0192951 0.0193042 0.0193138 0.019324 0.0193348 0.0193459 0.0193575 0.0193694 0.0193817 0.0193942 0.019407 0.01942 0.0194332 0.0194464 0.0194598 0.0194732 0.0194866 0.0195 0.0195134 0.0195267 0.0195399 0.0195531 0.0195661 0.0195789 0.0195916 0.0196042 0.0196165 0.0196287 0.0196406 0.0196524 0.0196639 0.0196752 0.0196862 0.019697 0.0197075 0.0197177 0.0197276 0.0197371 0.0197463 0.019755 0.0197632 0.0197709 0.019778 0.0197843 0.0197899 0.0197945 0.0197981 0.0198006 0.0198019 0.0198017 0.0198001 0.0197968 0.0197917 0.0197847 0.0197757 0.0197645 0.019751 0.019735 0.0197164 0.0196951 0.0196709 0.0196435 0.0196128 0.0195786 0.0195406 0.0194985 0.019452 0.0194008 0.0193447 0.0192833 0.0192165 0.0191439 0.0190656 0.0189815 0.0188915 0.0187958 0.0186943 0.0185871 0.018474 0.0183549 0.0182293 0.0180966 0.0179558 0.0178075 0.0176577 0.0175261 0.0174411 0.0173963 0.0173131 0.0170718 0.0167317 0.0163573 0.0159205 0.0153893 0.0147664 0.0141293 0.0135266 0.0129097 0.011963 0.0107981 0.00951844 0.00818787 0.00696308 0.00533298 0.00340603 0.00137752 -0.000179298 0 0 0 0 0 0 0 0 0 0 0 0 0 0 0 0 0 0 0 0 0 0 0 0 0 0 0 0 0 0 0 0 0 0 0 0 0 0 0 0 0 0 0 0 0 0 0 0 0 0 0 0 0 0 0 0 0 0 0 0 0 0 0 0 0 0 0 0 0 0 0 0 0 0 0 0 0 0 0 0 0 0 0 0 0 0 0 0 0 0 0 0 0 0 0 0 0 0 0 0 0 0 0 0 0 0 0 0 0 0 0 0 0 0 0 0 0 0 0 0 0 0 0 0 0 0 0 0 0 0 0 0 0 0 0 0 0 0 0 0 0 0 0 0 0 0 0 0 0 0 0 0 0 0 0 0 0 0 0 0 0 0 0 0 0 0 0 0 0 0 0 0 0 0 0 0 0 0 0 0 0 0 0 0 0 0 0 0 0 0 0 0 0 0 0 0 0 0 0 0 0 0 0 0 0 0 0 -2.1684e-19 
0.02 0.02 0.02 0.02 0.02 0.02 0.02 0.02 0.02 0.02 0.02 0.02 0.02 0.02 0.02 0.02 0.02 0.02 0.02 0.02 0.02 0.02 0.02 0.02 0.02 0.02 0.02 0.02 0.02 0.02 0.02 0.02 0.02 0.02 0.02 0.02 0.02 0.02 0.02 0.02 0.02 0.02 0.02 0.02 0.02 0.02 0.02 0.02 0.02 0.02 0.02 0.02 0.02 0.02 0.02 0.02 0.02 0.02 0.02 0.02 0.02 0.02 0.02 0.02 0.02 0.02 0.02 0.02 0.02 0.02 0.02 0.02 0.02 0.02 0.02 0.02 0.02 0.02 0.02 0.02 0.02 0.02 0.02 0.02 0.02 0.02 0.02 0.02 0.02 0.02 0.02 0.02 0.02 0.02 0.02 0.02 0.02 0.02 0.02 0.02 0.02 0.02 0.02 0.02 0.02 0.02 0.02 0.02 0.02 0.02 0.02 0.02 0.02 0.02 0.02 0.02 0.02 0.0200001 0.0200001 0.0200001 0.0200001 0.0200001 0.0200001 0.0200001 0.0200001 0.0200001 0.0200001 0.0200002 0.0200002 0.0200002 0.0200002 0.0200002 0.0200003 0.0200003 0.0200003 0.0200004 0.0200004 0.0200005 0.0200005 0.0200006 0.0200006 0.0200007 0.0200007 0.0200008 0.0200009 0.020001 0.0200011 0.0200012 0.0200013 0.0200014 0.0200016 0.0200017 0.0200019 0.020002 0.0200022 0.0200024 0.0200027 0.0200029 0.0200031 0.0200034 0.0200037 0.020004 0.0200044 0.0200048 0.0200052 0.0200056 0.0200061 0.0200066 0.0200071 0.0200077 0.0200083 0.0200089 0.0200096 0.0200103 0.0200111 0.0200119 0.0200128 0.0200137 0.0200147 0.0200157 0.0200168 0.0200179 0.0200191 0.0200203 0.0200216 0.020023 0.0200244 0.0200258 0.0200273 0.0200288 0.0200304 0.020032 0.0200337 0.0200354 0.0200371 0.0200388 0.0200406 0.0200424 0.0200441 0.0200459 0.0200476 0.0200494 0.0200511 0.0200527 0.0200543 0.0200558 0.0200572 0.0200586 0.0200598 0.0200609 0.0200619 0.0200627 0.0200633 0.0200638 0.0200641 0.0200641 0.0200639 0.0200635 0.0200628 0.0200618 0.0200604 0.0200588 0.0200567 0.0200543 0.0200516 0.0200485 0.020045 0.0200411 0.0200368 0.0200321 0.020027 0.0200214 0.0200154 0.0200089 0.020002 0.0199946 0.0199867 0.0199783 0.0199695 0.0199602 0.0199504 0.0199401 0.0199294 0.0199182 0.0199065 0.0198944 0.0198819 0.0198689 0.0198555 0.0198417 0.0198276 0.019813 0.0197982 0.0197829 0.0197674 0.0197516 0.0197355 0.0197192 0.0197027 0.019686 0.0196691 0.0196521 0.019635 0.0196178 0.0196006 0.0195834 0.0195662 0.019549 0.0195319 0.019515 0.0194982 0.0194816 0.0194652 0.0194491 0.0194333 0.0194178 0.0194028 0.0193882 0.0193741 0.0193606 0.0193477 0.0193355 0.019324 0.0193132 0.0193033 0.0192941 0.0192858 0.0192783 0.0192716 0.0192658 0.0192609 0.0192568 0.0192537 0.0192514 0.01925 0.0192495 0.0192499 0.0192512 0.0192533 0.0192563 0.0192601 0.0192648 0.0192702 0.0192764 0.0192833 0.0192908 0.0192991 0.019308 0.0193174 0.0193274 0.0193379 0.0193488 0.0193601 0.0193718 0.0193839 0.0193962 0.0194087 0.0194215 0.0194344 0.0194475 0.0194606 0.0194738 0.019487 0.0195002 0.0195134 0.0195265 0.0195395 0.0195525 0.0195653 0.019578 0.0195905 0.0196028 0.019615 0.019627 0.0196388 0.0196504 0.0196618 0.0196729 0.0196839 0.0196945 0.0197049 0.019715 0.0197248 0.0197343 0.0197434 0.019752 0.0197602 0.0197679 0.0197749 0.0197813 0.0197869 0.0197915 0.0197952 0.0197978 0.0197992 0.0197991 0.0197976 0.0197945 0.0197896 0.0197829 0.0197741 0.0197632 0.0197499 0.0197343 0.019716 0.0196951 0.0196712 0.0196443 0.019614 0.0195803 0.0195427 0.019501 0.019455 0.0194043 0.0193486 0.0192876 0.0192211 0.0191489 0.0190708 0.0189867 0.0188967 0.0188008 0.0186989 0.0185911 0.0184772 0.0183571 0.0182302 0.0180962 0.0179548 0.0178083 0.0176648 0.0175403 0.0174468 0.017365 0.0172375 0.0170094 0.0166988 0.0163302 0.0158916 0.0153673 0.0147714 0.0141475 0.0135087 0.0127889 0.0118533 0.010723 0.00947562 0.0081452 0.00677483 0.00513266 0.00325464 0.00126788 -0.000749441 -0.00321484 -0.00613574 -0.00918272 0 0 0 0 0 0 0 0 0 0 0 0 0 0 0 0 0 0 0 0 0 0 0 0 0 0 0 0 0 0 0 0 0 0 0 0 0 0 0 0 0 0 0 0 0 0 0 0 0 0 0 0 0 0 0 0 0 0 0 0 0 0 0 0 0 0 0 0 0 0 0 0 0 0 0 0 0 0 0 0 0 0 0 0 0 0 0 0 0 0 0 0 0 0 0 0 0 0 0 0 0 0 0 0 0 0 0 0 0 0 0 0 0 0 0 0 0 0 0 0 0 0 0 0 0 0 0 0 0 0 0 0 0 0 0 0 0 0 0 0 0 0 0 0 0 0 0 0 0 0 0 0 0 0 0 0 0 0 0 0 0 0 0 0 0 0 0 0 0 0 0 0 0 0 0 0 0 0 0 0 0 0 0 0 0 0 0 0 0 0 0 0 0 0 0 0 0 0 0 0 0 0 0 -0.00478205 -1.0842e-18 
0.02 0.02 0.02 0.02 0.02 0.02 0.02 0.02 0.02 0.02 0.02 0.02 0.02 0.02 0.02 0.02 0.02 0.02 0.02 0.02 0.02 0.02 0.02 0.02 0.02 0.02 0.02 0.02 0.02 0.02 0.02 0.02 0.02 0.02 0.02 0.02 0.02 0.02 0.02 0.02 0.02 0.02 0.02 0.02 0.02 0.02 0.02 0.02 0.02 0.02 0.02 0.02 0.02 0.02 0.02 0.02 0.02 0.02 0.02 0.02 0.02 0.02 0.02 0.02 0.02 0.02 0.02 0.02 0.02 0.02 0.02 0.02 0.02 0.02 0.02 0.02 0.02 0.02 0.02 0.02 0.02 0.02 0.02 0.02 0.02 0.02 0.02 0.02 0.02 0.02 0.02 0.02 0.02 0.02 0.02 0.02 0.02 0.02 0.02 0.02 0.02 0.02 0.02 0.02 0.02 0.02 0.02 0.02 0.02 0.02 0.02 0.02 0.02 0.02 0.02 0.02 0.02 0.0200001 0.0200001 0.0200001 0.0200001 0.0200001 0.0200001 0.0200001 0.0200001 0.0200001 0.0200001 0.0200002 0.0200002 0.0200002 0.0200002 0.0200002 0.0200003 0.0200003 0.0200003 0.0200004 0.0200004 0.0200004 0.0200005 0.0200005 0.0200006 0.0200007 0.0200007 0.0200008 0.0200009 0.020001 0.020001 0.0200011 0.0200013 0.0200014 0.0200015 0.0200017 0.0200018 0.020002 0.0200022 0.0200024 0.0200026 0.0200028 0.0200031 0.0200033 0.0200036 0.0200039 0.0200043 0.0200046 0.020005 0.0200055 0.0200059 0.0200064 0.0200069 0.0200075 0.0200081 0.0200087 0.0200094 0.0200101 0.0200109 0.0200117 0.0200125 0.0200134 0.0200144 0.0200154 0.0200164 0.0200175 0.0200187 0.0200199 0.0200212 0.0200225 0.0200238 0.0200253 0.0200267 0.0200282 0.0200298 0.0200314 0.020033 0.0200347 0.0200364 0.0200381 0.0200398 0.0200416 0.0200433 0.0200451 0.0200468 0.0200485 0.0200502 0.0200518 0.0200534 0.0200549 0.0200563 0.0200576 0.0200588 0.02006 0.0200609 0.0200618 0.0200624 0.0200629 0.0200632 0.0200633 0.0200631 0.0200627 0.0200621 0.0200611 0.0200599 0.0200583 0.0200563 0.0200541 0.0200514 0.0200484 0.0200451 0.0200413 0.0200372 0.0200326 0.0200277 0.0200223 0.0200165 0.0200102 0.0200034 0.0199963 0.0199886 0.0199805 0.0199719 0.0199629 0.0199533 0.0199434 0.0199329 0.019922 0.0199107 0.0198989 0.0198866 0.019874 0.0198609 0.0198475 0.0198336 0.0198194 0.0198048 0.0197899 0.0197747 0.0197592 0.0197434 0.0197273 0.0197111 0.0196946 0.0196779 0.0196611 0.0196441 0.0196271 0.01961 0.0195928 0.0195757 0.0195586 0.0195415 0.0195245 0.0195077 0.019491 0.0194746 0.0194584 0.0194426 0.0194271 0.0194121 0.0193975 0.0193834 0.01937 0.0193571 0.019345 0.0193335 0.0193227 0.0193127 0.0193035 0.019295 0.0192874 0.0192805 0.0192745 0.0192694 0.0192651 0.0192618 0.0192593 0.0192577 0.019257 0.0192571 0.0192582 0.0192601 0.0192628 0.0192664 0.0192708 0.0192759 0.0192818 0.0192885 0.0192958 0.0193038 0.0193123 0.0193215 0.0193312 0.0193414 0.019352 0.0193631 0.0193745 0.0193863 0.0193983 0.0194106 0.0194231 0.0194357 0.0194485 0.0194613 0.0194743 0.0194872 0.0195002 0.0195131 0.019526 0.0195388 0.0195515 0.0195641 0.0195765 0.0195888 0.019601 0.019613 0.0196248 0.0196364 0.0196478 0.019659 0.01967 0.0196808 0.0196913 0.0197016 0.0197116 0.0197213 0.0197307 0.0197397 0.0197483 0.0197564 0.019764 0.0197711 0.0197774 0.019783 0.0197878 0.0197915 0.0197942 0.0197957 0.0197958 0.0197945 0.0197916 0.0197869 0.0197804 0.0197719 0.0197613 0.0197484 0.0197332 0.0197153 0.0196948 0.0196715 0.019645 0.0196153 0.0195821 0.0195451 0.0195041 0.0194587 0.0194086 0.0193535 0.0192931 0.0192271 0.0191553 0.0190776 0.0189938 0.0189039 0.0188079 0.0187057 0.0185974 0.0184827 0.0183615 0.0182335 0.0180983 0.0179567 0.017812 0.0176724 0.0175485 0.0174425 0.0173339 0.0171829 0.0169583 0.0166614 0.0162998 0.0158682 0.0153589 0.0147825 0.0141593 0.0134863 0.0127128 0.0117771 0.0106717 0.00944171 0.00809588 0.0066356 0.00498026 0.00314399 0.0011263 -0.00100652 -0.00325579 -0.00606254 -0.00908826 -0.0127388 -0.0169507 -0.0206493 0 0 0 0 0 0 0 0 0 0 0 0 0 0 0 0 0 0 0 0 0 0 0 0 0 0 0 0 0 0 0 0 0 0 0 0 0 0 0 0 0 0 0 0 0 0 0 0 0 0 0 0 0 0 0 0 0 0 0 0 0 0 0 0 0 0 0 0 0 0 0 0 0 0 0 0 0 0 0 0 0 0 0 0 0 0 0 0 0 0 0 0 0 0 0 0 0 0 0 0 0 0 0 0 0 0 0 0 0 0 0 0 0 0 0 0 0 0 0 0 0 0 0 0 0 0 0 0 0 0 0 0 0 0 0 0 0 0 0 0 0 0 0 0 0 0 0 0 0 0 0 0 0 0 0 0 0 0 0 0 0 0 0 0 0 0 0 0 0 0 0 0 0 0 0 0 0 0 0 0 0 0 0 0 0 0 0 0 0 0 0 0 0 0 0 0 0 0 0 -0.0170233 -0.00868255 6.50521e-19 
0.02 0.02 0.02 0.02 0.02 0.02 0.02 0.02 0.02 0.02 0.02 0.02 0.02 0.02 0.02 0.02 0.02 0.02 0.02 0.02 0.02 0.02 0.02 0.02 0.02 0.02 0.02 0.02 0.02 0.02 0.02 0.02 0.02 0.02 0.02 0.02 0.02 0.02 0.02 0.02 0.02 0.02 0.02 0.02 0.02 0.02 0.02 0.02 0.02 0.02 0.02 0.02 0.02 0.02 0.02 0.02 0.02 0.02 0.02 0.02 0.02 0.02 0.02 0.02 0.02 0.02 0.02 0.02 0.02 0.02 0.02 0.02 0.02 0.02 0.02 0.02 0.02 0.02 0.02 0.02 0.02 0.02 0.02 0.02 0.02 0.02 0.02 0.02 0.02 0.02 0.02 0.02 0.02 0.02 0.02 0.02 0.02 0.02 0.02 0.02 0.02 0.02 0.02 0.02 0.02 0.02 0.02 0.02 0.02 0.02 0.02 0.02 0.02 0.02 0.02 0.02 0.02 0.02 0.0200001 0.0200001 0.0200001 0.0200001 0.0200001 0.0200001 0.0200001 0.0200001 0.0200001 0.0200002 0.0200002 0.0200002 0.0200002 0.0200002 0.0200003 0.0200003 0.0200003 0.0200003 0.0200004 0.0200004 0.0200005 0.0200005 0.0200006 0.0200006 0.0200007 0.0200008 0.0200008 0.0200009 0.020001 0.0200011 0.0200012 0.0200013 0.0200015 0.0200016 0.0200017 0.0200019 0.0200021 0.0200023 0.0200025 0.0200027 0.0200029 0.0200032 0.0200035 0.0200038 0.0200041 0.0200045 0.0200049 0.0200053 0.0200057 0.0200062 0.0200067 0.0200072 0.0200078 0.0200084 0.0200091 0.0200098 0.0200105 0.0200113 0.0200122 0.020013 0.020014 0.0200149 0.020016 0.0200171 0.0200182 0.0200194 0.0200206 0.0200219 0.0200232 0.0200246 0.0200261 0.0200275 0.0200291 0.0200306 0.0200322 0.0200339 0.0200355 0.0200372 0.0200389 0.0200406 0.0200424 0.0200441 0.0200458 0.0200474 0.0200491 0.0200507 0.0200522 0.0200537 0.0200551 0.0200565 0.0200577 0.0200588 0.0200598 0.0200606 0.0200613 0.0200618 0.0200621 0.0200622 0.0200621 0.0200618 0.0200612 0.0200603 0.0200591 0.0200576 0.0200558 0.0200536 0.0200511 0.0200483 0.0200451 0.0200415 0.0200375 0.0200331 0.0200284 0.0200232 0.0200176 0.0200115 0.020005 0.0199981 0.0199907 0.0199829 0.0199746 0.0199658 0.0199566 0.019947 0.0199369 0.0199263 0.0199153 0.0199039 0.019892 0.0198797 0.019867 0.0198539 0.0198404 0.0198265 0.0198123 0.0197978 0.0197829 0.0197677 0.0197522 0.0197364 0.0197204 0.0197042 0.0196878 0.0196712 0.0196544 0.0196375 0.0196206 0.0196035 0.0195865 0.0195694 0.0195524 0.0195355 0.0195187 0.0195021 0.0194857 0.0194696 0.0194538 0.0194384 0.0194235 0.019409 0.019395 0.0193815 0.0193687 0.0193565 0.019345 0.0193341 0.0193239 0.0193145 0.0193059 0.019298 0.019291 0.0192848 0.0192794 0.0192749 0.0192713 0.0192685 0.0192667 0.0192657 0.0192656 0.0192663 0.0192679 0.0192704 0.0192736 0.0192777 0.0192825 0.0192881 0.0192944 0.0193014 0.0193091 0.0193173 0.0193261 0.0193355 0.0193453 0.0193556 0.0193664 0.0193774 0.0193888 0.0194005 0.0194125 0.0194246 0.019437 0.0194494 0.019462 0.0194746 0.0194872 0.0194999 0.0195125 0.0195251 0.0195376 0.0195501 0.0195624 0.0195746 0.0195867 0.0195986 0.0196104 0.019622 0.0196334 0.0196446 0.0196557 0.0196665 0.0196771 0.0196875 0.0196976 0.0197074 0.019717 0.0197263 0.0197352 0.0197437 0.0197518 0.0197594 0.0197664 0.0197728 0.0197784 0.0197832 0.019787 0.0197898 0.0197914 0.0197917 0.0197906 0.0197879 0.0197835 0.0197773 0.0197692 0.0197589 0.0197464 0.0197316 0.0197143 0.0196943 0.0196715 0.0196457 0.0196166 0.0195841 0.0195478 0.0195075 0.0194628 0.0194135 0.0193592 0.0192995 0.0192342 0.019163 0.0190858 0.0190024 0.0189128 0.0188168 0.0187144 0.0186057 0.0184903 0.0183681 0.0182389 0.0181028 0.0179611 0.0178177 0.0176793 0.017552 0.0174333 0.0173048 0.0171385 0.0169126 0.0166218 0.0162667 0.0158451 0.0153532 0.0147916 0.014167 0.0134648 0.0126623 0.0117212 0.0106333 0.00940468 0.00804428 0.00652658 0.00484179 0.00298306 0.000937703 -0.00130514 -0.0037162 -0.00629947 -0.00941243 -0.0126936 -0.0164382 -0.0208202 -0.0265105 -0.0308997 0 0 0 0 0 0 0 0 0 0 0 0 0 0 0 0 0 0 0 0 0 0 0 0 0 0 0 0 0 0 0 0 0 0 0 0 0 0 0 0 0 0 0 0 0 0 0 0 0 0 0 0 0 0 0 0 0 0 0 0 0 0 0 0 0 0 0 0 0 0 0 0 0 0 0 0 0 0 0 0 0 0 0 0 0 0 0 0 0 0 0 0 0 0 0 0 0 0 0 0 0 0 0 0 0 0 0 0 0 0 0 0 0 0 0 0 0 0 0 0 0 0 0 0 0 0 0 0 0 0 0 0 0 0 0 0 0 0 0 0 0 0 0 0 0 0 0 0 0 0 0 0 0 0 0 0 0 0 0 0 0 0 0 0 0 0 0 0 0 0 0 0 0 0 0 0 0 0 0 0 0 0 0 0 0 0 0 0 0 0 0 0 0 0 0 -0.0352798 -0.0295118 -0.0212253 -0.011598 0 