# vtk DataFile Version 2.0
iteration 1917
ASCII

DATASET STRUCTURED_POINTS
DIMENSIONS 621 64 1
ORIGIN 0 0 0
SPACING 0.00161031 0.00161031 0.00161031

POINT_DATA 39744
SCALARS P float 1
LOOKUP_TABLE default
0 0 0 0 0 0 0 0 0 0 0 0 0 0 0 0 0 0 0 0 0 0 0 0 0 0 0 0 0 0 0 0 0 0 0 0 0 0 0 0 0 0 0 0 0 0 0 0 0 0 0 0 0 0 0 0 0 0 0 0 0 0 0 0 0 0 0 0 0 0 0 0 0 0 0 0 0 0 0 0 0 0 0 0 0 0 0 0 0 0 0 0 0 0 0 0 0 0 0 0 0 0 0 0 0 0 0 0 0 0 0 0 0 0 0 0 0 0 0 0 0 0 0 0 0 0 0 0 0 0 0 0 0 0 0 0 0 0 0 0 0 0 0 0 0 0 0 0 0 0 0 0 0 0 0 0 0 0 0 0 0 0 0 0 0 0 0 0 0 0 0 0 0 0 0 0 0 0 0 0 0 0 0 0 0 0 0 0 0 0 0 0 0 0 0 0 0 0 0 0 0 0 0 0 0 0 0 0 0 0 0 0 0 0 0 0 0 0 0 0 0 0 0 0 0 0 0 0 0 0 0 0 0 0 0 0 0 0 0 0 0 0 0 0 0 0 0 0 0 0 0 0 0 0 0 0 0 0 0 0 0 0 0 0 0 0 0 0 0 0 0 0 0 0 0 0 0 0 0 0 0 0 0 0 0 0 0 0 0 0 0 0 0 0 0 0 0 0 0 0 0 0 0 0 0 0 0 0 0 0 0 0 0 0 0 0 0 0 0 0 0 0 0 0 0 0 0 0 0 0 0 0 0 0 0 0 0 0 0 0 0 0 0 0 0 0 0 0 0 0 0 0 0 0 0 0 0 0 0 0 0 0 0 0 0 0 0 0 0 0 0 0 0 0 0 0 0 0 0 0 0 0 0 0 0 0 0 0 0 0 0 0 0 0 0 0 0 0 0 0 0 0 0 0 0 0 0 0 0 0 0 0 0 0 0 0 0 0 0 0 0 0 0 0 0 0 0 0 0 0 0 0 0 0 0 0 0 0 0 0 0 0 0 0 0 0 0 0 0 0 0 0 0 0 0 0 0 0 0 0 0 0 0 0 0 0 0 0 0 0 0 0 0 0 0 0 0 0 0 0 0 0 0 0 0 0 0 0 0 0 0 0 0 0 0 0 0 0 0 0 0 0 0 0 0 0 0 0 0 0 0 0 0 0 0 0 0 0 0 0 0 0 0 0 0 0 0 0 0 0 0 0 0 0 0 0 0 0 0 0 0 0 0 0 0 0 0 0 0 0 0 0 0 0 0 0 0 0 0 0 0 0 0 0 0 0 0 0 0 0 0 0 0 0 0 0 0 0 0 0 0 0 0 0 0 0 0 0 0 0 0 0 0 0 0 0 0 0 0 0 0 0 0 0 0 0 0 0 0 0 0 0 0 0 0 0 0 0 0 0 0 
0.02 0.02 0.02 0.02 0.02 0.02 0.02 0.02 0.02 0.02 0.02 0.02 0.02 0.02 0.02 0.02 0.02 0.02 0.02 0.02 0.02 0.02 0.02 0.02 0.02 0.02 0.02 0.02 0.02 0.02 0.02 0.02 0.02 0.02 0.02 0.02 0.02 0.02 0.02 0.02 0.02 0.02 0.02 0.02 0.02 0.02 0.02 0.02 0.02 0.02 0.02 0.02 0.02 0.02 0.02 0.02 0.02 0.02 0.02 0.02 0.02 0.02 0.02 0.02 0.02 0.02 0.02 0.02 0.02 0.02 0.02 0.02 0.02 0.02 0.02 0.02 0.02 0.02 0.02 0.02 0.02 0.02 0.02 0.02 0.02 0.02 0.02 0.02 0.02 0.02 0.02 0.02 0.02 0.02 0.02 0.02 0.02 0.02 0.02 0.02 0.02 0.02 0.02 0.02 0.02 0.02 0.02 0.02 0.02 0.02 0.02 0.02 0.02 0.02 0.02 0.02 0.02 0.02 0.02 0.02 0.02 0.02 0.02 0.02 0.02 0.02 0.02 0.02 0.02 0.02 0.02 0.02 0.02 0.02 0.02 0.02 0.02 0.02 0.02 0.02 0.02 0.02 0.02 0.02 0.02 0.02 0.02 0.02 0.02 0.02 0.02 0.02 0.02 0.02 0.02 0.02 0.02 0.02 0.02 0.02 0.02 0.02 0.02 0.02 0.02 0.02 0.02 0.02 0.02 0.02 0.02 0.02 0.02 0.02 0.02 0.02 0.02 0.02 0.02 0.02 0.02 0.02 0.02 0.02 0.02 0.02 0.02 0.02 0.0199999 0.0199999 0.0199999 0.0199999 0.0199998 0.0199998 0.0199998 0.0199997 0.0199996 0.0199996 0.0199995 0.0199994 0.0199993 0.0199992 0.0199991 0.019999 0.0199988 0.0199986 0.0199985 0.0199982 0.019998 0.0199977 0.0199975 0.0199971 0.0199968 0.0199964 0.019996 0.0199955 0.019995 0.0199945 0.0199939 0.0199932 0.0199925 0.0199918 0.019991 0.0199901 0.0199891 0.0199881 0.019987 0.0199858 0.0199845 0.0199832 0.0199817 0.0199802 0.0199786 0.0199768 0.019975 0.019973 0.019971 0.0199688 0.0199665 0.0199641 0.0199616 0.0199589 0.0199561 0.0199532 0.0199501 0.019947 0.0199437 0.0199402 0.0199366 0.0199329 0.019929 0.0199249 0.0199206 0.0199162 0.0199117 0.0199071 0.0199024 0.0198976 0.0198926 0.0198874 0.0198822 0.0198768 0.0198714 0.0198658 0.0198601 0.0198542 0.0198483 0.0198423 0.0198362 0.01983 0.0198238 0.0198175 0.0198111 0.0198046 0.0197981 0.0197916 0.019785 0.0197784 0.0197718 0.0197651 0.0197585 0.0197518 0.0197452 0.0197386 0.019732 0.0197254 0.0197189 0.0197125 0.019706 0.0196997 0.0196934 0.0196872 0.019681 0.0196749 0.019669 0.0196631 0.0196573 0.0196516 0.019646 0.0196405 0.0196351 0.0196298 0.0196247 0.0196196 0.0196146 0.0196097 0.0196049 0.0196001 0.0195955 0.0195909 0.0195863 0.0195819 0.0195774 0.019573 0.0195686 0.0195642 0.0195598 0.0195554 0.0195509 0.0195464 0.0195418 0.0195371 0.0195324 0.0195275 0.0195224 0.0195173 0.0195119 0.0195064 0.0195007 0.0194948 0.0194886 0.0194822 0.0194756 0.0194688 0.0194616 0.0194542 0.0194465 0.0194385 0.0194303 0.0194221 0.0194137 0.0194048 0.0193962 0.0193874 0.0193784 0.0193692 0.0193599 0.0193505 0.0193409 0.0193311 0.0193213 0.0193115 0.0193015 0.0192916 0.0192816 0.0192717 0.0192618 0.0192519 0.0192422 0.0192325 0.019223 0.0192136 0.0192044 0.0191954 0.0191867 0.0191782 0.0191699 0.019162 0.0191543 0.0191469 0.0191399 0.0191333 0.019127 0.019121 0.0191155 0.0191103 0.0191055 0.0191011 0.0190971 0.0190935 0.0190903 0.0190874 0.0190849 0.0190828 0.019081 0.0190796 0.0190784 0.0190776 0.0190769 0.0190766 0.0190764 0.0190764 0.0190765 0.0190767 0.0190769 0.0190771 0.0190773 0.0190773 0.0190771 0.0190767 0.019076 0.0190749 0.0190734 0.0190713 0.0190685 0.019065 0.0190607 0.0190555 0.0190492 0.0190417 0.0190331 0.019023 0.0190115 0.0189985 0.0189839 0.0189675 0.0189493 0.0189293 0.0189074 0.0188836 0.0188579 0.0188303 0.0188009 0.0187698 0.018737 0.0187028 0.0186673 0.0186306 0.0185931 0.0185548 0.018516 0.0184768 0.0184374 0.0183978 0.0183579 0.0183179 0.0182776 0.0182369 0.0181956 0.0181537 0.018111 0.0180673 0.0180226 0.0179769 0.0179299 0.0178815 0.0178316 0.0177798 0.0177259 0.0176629 0.0175817 0.01749 0.0173878 0.017278 0.0171623 0.0170413 0.0169126 0.0167746 0.0166464 0.0166791 0.0182426 0 0 0 0 0 0 0 0 0 0 0 0 0 0 0 0 0 0 0 0 0 0 0 0 0 0 0 0 0 0 0 0 0 0 0 0 0 0 0 0 0 0 0 0 0 0 0 0 0 0 0 0 0 0 0 0 0 0 0 0 0 0 0 0 0 0 0 0 0 0 0 0 0 0 0 0 0 0 0 0 0 0 0 0 0 0 0 0 0 0 0 0 0 0 0 0 0 0 0 0 0 0 0 0 0 0 0 0 0 0 0 0 0 0 0 0 0 0 0 0 0 0 0 0 0 0 0 0 0 0 0 0 0 0 0 0 0 0 0 0 0 0 0 0 0 0 0 0 0 0 0 0 0 0 0 0 0 0 0 0 
0.02 0.02 0.02 0.02 0.02 0.02 0.02 0.02 0.02 0.02 0.02 0.02 0.02 0.02 0.02 0.02 0.02 0.02 0.02 0.02 0.02 0.02 0.02 0.02 0.02 0.02 0.02 0.02 0.02 0.02 0.02 0.02 0.02 0.02 0.02 0.02 0.02 0.02 0.02 0.02 0.02 0.02 0.02 0.02 0.02 0.02 0.02 0.02 0.02 0.02 0.02 0.02 0.02 0.02 0.02 0.02 0.02 0.02 0.02 0.02 0.02 0.02 0.02 0.02 0.02 0.02 0.02 0.02 0.02 0.02 0.02 0.02 0.02 0.02 0.02 0.02 0.02 0.02 0.02 0.02 0.02 0.02 0.02 0.02 0.02 0.02 0.02 0.02 0.02 0.02 0.02 0.02 0.02 0.02 0.02 0.02 0.02 0.02 0.02 0.02 0.02 0.02 0.02 0.02 0.02 0.02 0.02 0.02 0.02 0.02 0.02 0.02 0.02 0.02 0.02 0.02 0.02 0.02 0.02 0.02 0.02 0.02 0.02 0.02 0.02 0.02 0.02 0.02 0.02 0.02 0.02 0.02 0.02 0.02 0.02 0.02 0.02 0.02 0.02 0.02 0.02 0.02 0.02 0.02 0.02 0.02 0.02 0.02 0.02 0.02 0.02 0.02 0.02 0.02 0.02 0.02 0.02 0.02 0.02 0.02 0.02 0.02 0.02 0.02 0.02 0.02 0.02 0.02 0.02 0.02 0.02 0.02 0.02 0.02 0.02 0.02 0.02 0.02 0.02 0.02 0.02 0.02 0.02 0.02 0.02 0.02 0.02 0.02 0.0199999 0.0199999 0.0199999 0.0199999 0.0199998 0.0199998 0.0199998 0.0199997 0.0199997 0.0199996 0.0199995 0.0199994 0.0199994 0.0199992 0.0199991 0.019999 0.0199988 0.0199987 0.0199985 0.0199983 0.019998 0.0199978 0.0199975 0.0199972 0.0199968 0.0199965 0.0199961 0.0199956 0.0199951 0.0199946 0.019994 0.0199933 0.0199926 0.0199919 0.019991 0.0199902 0.0199892 0.0199882 0.0199871 0.0199859 0.0199847 0.0199833 0.0199819 0.0199804 0.0199787 0.019977 0.0199752 0.0199732 0.0199712 0.019969 0.0199667 0.0199643 0.0199618 0.0199591 0.0199564 0.0199535 0.0199504 0.0199472 0.0199439 0.0199405 0.0199369 0.0199332 0.0199293 0.0199253 0.0199211 0.0199167 0.0199122 0.0199076 0.0199029 0.019898 0.019893 0.0198879 0.0198827 0.0198773 0.0198719 0.0198663 0.0198606 0.0198548 0.0198489 0.0198429 0.0198368 0.0198306 0.0198243 0.019818 0.0198116 0.0198052 0.0197987 0.0197921 0.0197855 0.0197789 0.0197723 0.0197656 0.019759 0.0197523 0.0197457 0.0197391 0.0197324 0.0197259 0.0197193 0.0197128 0.0197064 0.0197 0.0196937 0.0196874 0.0196813 0.0196752 0.0196692 0.0196632 0.0196574 0.0196517 0.0196461 0.0196405 0.0196351 0.0196298 0.0196245 0.0196194 0.0196144 0.0196094 0.0196046 0.0195998 0.0195951 0.0195904 0.0195859 0.0195813 0.0195769 0.0195724 0.0195679 0.0195635 0.0195591 0.0195546 0.0195501 0.0195455 0.0195409 0.0195361 0.0195313 0.0195264 0.0195213 0.0195161 0.0195107 0.0195051 0.0194994 0.0194934 0.0194873 0.0194809 0.0194742 0.0194674 0.0194604 0.0194531 0.0194457 0.019438 0.01943 0.019422 0.0194139 0.0194056 0.0193971 0.0193885 0.0193796 0.0193706 0.0193614 0.0193521 0.0193427 0.0193331 0.0193235 0.0193138 0.019304 0.0192942 0.0192844 0.0192746 0.0192648 0.0192551 0.0192455 0.019236 0.0192266 0.0192174 0.0192083 0.0191995 0.0191908 0.0191824 0.0191743 0.0191664 0.0191588 0.0191516 0.0191446 0.019138 0.0191318 0.0191259 0.0191204 0.0191153 0.0191105 0.0191061 0.0191022 0.0190985 0.0190953 0.0190925 0.01909 0.0190879 0.0190861 0.0190846 0.0190834 0.0190826 0.019082 0.0190816 0.0190814 0.0190814 0.0190815 0.0190817 0.0190819 0.0190822 0.0190824 0.0190824 0.0190824 0.0190821 0.0190815 0.0190805 0.019079 0.0190771 0.0190745 0.0190712 0.0190671 0.0190621 0.019056 0.0190489 0.0190405 0.0190308 0.0190196 0.0190069 0.0189926 0.0189766 0.0189588 0.0189392 0.0189177 0.0188943 0.0188691 0.0188419 0.0188129 0.0187822 0.0187499 0.0187161 0.0186809 0.0186447 0.0186074 0.0185694 0.0185309 0.0184919 0.0184525 0.0184129 0.018373 0.0183329 0.0182923 0.0182513 0.0182096 0.0181671 0.0181238 0.0180795 0.018034 0.0179874 0.0179393 0.0178897 0.0178383 0.0177846 0.0177283 0.0176678 0.0175963 0.0175067 0.0174058 0.0172934 0.0171729 0.0170454 0.0169092 0.0167641 0.0166309 0.016615 0.0168548 0.0167448 0.0163919 0.0161143 0.0156464 0.0175491 0 0 0 0 0 0 0 0 0 0 0 0 0 0 0 0 0 0 0 0 0 0 0 0 0 0 0 0 0 0 0 0 0 0 0 0 0 0 0 0 0 0 0 0 0 0 0 0 0 0 0 0 0 0 0 0 0 0 0 0 0 0 0 0 0 0 0 0 0 0 0 0 0 0 0 0 0 0 0 0 0 0 0 0 0 0 0 0 0 0 0 0 0 0 0 0 0 0 0 0 0 0 0 0 0 0 0 0 0 0 0 0 0 0 0 0 0 0 0 0 0 0 0 0 0 0 0 0 0 0 0 0 0 0 0 0 0 0 0 0 0 0 0 0 0 0 0 0 0 0 0 0 0 0 0 
0.02 0.02 0.02 0.02 0.02 0.02 0.02 0.02 0.02 0.02 0.02 0.02 0.02 0.02 0.02 0.02 0.02 0.02 0.02 0.02 0.02 0.02 0.02 0.02 0.02 0.02 0.02 0.02 0.02 0.02 0.02 0.02 0.02 0.02 0.02 0.02 0.02 0.02 0.02 0.02 0.02 0.02 0.02 0.02 0.02 0.02 0.02 0.02 0.02 0.02 0.02 0.02 0.02 0.02 0.02 0.02 0.02 0.02 0.02 0.02 0.02 0.02 0.02 0.02 0.02 0.02 0.02 0.02 0.02 0.02 0.02 0.02 0.02 0.02 0.02 0.02 0.02 0.02 0.02 0.02 0.02 0.02 0.02 0.02 0.02 0.02 0.02 0.02 0.02 0.02 0.02 0.02 0.02 0.02 0.02 0.02 0.02 0.02 0.02 0.02 0.02 0.02 0.02 0.02 0.02 0.02 0.02 0.02 0.02 0.02 0.02 0.02 0.02 0.02 0.02 0.02 0.02 0.02 0.02 0.02 0.02 0.02 0.02 0.02 0.02 0.02 0.02 0.02 0.02 0.02 0.02 0.02 0.02 0.02 0.02 0.02 0.02 0.02 0.02 0.02 0.02 0.02 0.02 0.02 0.02 0.02 0.02 0.02 0.02 0.02 0.02 0.02 0.02 0.02 0.02 0.02 0.02 0.02 0.02 0.02 0.02 0.02 0.02 0.02 0.02 0.02 0.02 0.02 0.02 0.02 0.02 0.02 0.02 0.02 0.02 0.02 0.02 0.02 0.02 0.02 0.02 0.02 0.02 0.02 0.02 0.02 0.02 0.02 0.02 0.0199999 0.0199999 0.0199999 0.0199999 0.0199998 0.0199998 0.0199997 0.0199997 0.0199996 0.0199995 0.0199995 0.0199994 0.0199993 0.0199991 0.019999 0.0199989 0.0199987 0.0199985 0.0199983 0.0199981 0.0199978 0.0199976 0.0199972 0.0199969 0.0199965 0.0199961 0.0199957 0.0199952 0.0199946 0.019994 0.0199934 0.0199927 0.019992 0.0199912 0.0199903 0.0199893 0.0199883 0.0199872 0.0199861 0.0199848 0.0199835 0.0199821 0.0199805 0.0199789 0.0199772 0.0199754 0.0199735 0.0199714 0.0199693 0.019967 0.0199646 0.0199621 0.0199595 0.0199567 0.0199538 0.0199508 0.0199476 0.0199443 0.0199409 0.0199373 0.0199336 0.0199298 0.0199258 0.0199216 0.0199173 0.0199128 0.0199082 0.0199035 0.0198986 0.0198936 0.0198886 0.0198833 0.019878 0.0198725 0.0198669 0.0198612 0.0198555 0.0198496 0.0198436 0.0198375 0.0198313 0.0198251 0.0198187 0.0198123 0.0198059 0.0197994 0.0197928 0.0197863 0.0197796 0.019773 0.0197663 0.0197597 0.019753 0.0197463 0.0197397 0.0197331 0.0197265 0.0197199 0.0197134 0.0197069 0.0197005 0.0196941 0.0196879 0.0196816 0.0196755 0.0196695 0.0196635 0.0196576 0.0196519 0.0196462 0.0196406 0.0196351 0.0196297 0.0196244 0.0196192 0.0196141 0.0196091 0.0196042 0.0195993 0.0195946 0.0195899 0.0195852 0.0195806 0.0195761 0.0195715 0.019567 0.0195625 0.019558 0.0195534 0.0195488 0.0195442 0.0195395 0.0195347 0.0195298 0.0195248 0.0195197 0.0195144 0.019509 0.0195034 0.0194977 0.0194918 0.0194857 0.0194794 0.0194729 0.0194663 0.0194595 0.0194524 0.0194452 0.019438 0.0194305 0.0194228 0.019415 0.0194069 0.0193987 0.0193903 0.0193817 0.0193729 0.019364 0.019355 0.0193458 0.0193366 0.0193272 0.0193178 0.0193083 0.0192988 0.0192893 0.0192798 0.0192704 0.019261 0.0192516 0.0192424 0.0192333 0.0192244 0.0192156 0.019207 0.0191986 0.0191904 0.0191825 0.0191748 0.0191675 0.0191604 0.0191537 0.0191472 0.0191411 0.0191354 0.01913 0.019125 0.0191204 0.0191161 0.0191122 0.0191086 0.0191055 0.0191027 0.0191002 0.0190981 0.0190964 0.0190949 0.0190937 0.0190929 0.0190922 0.0190918 0.0190917 0.0190916 0.0190917 0.0190919 0.0190922 0.0190924 0.0190926 0.0190927 0.0190927 0.0190924 0.0190919 0.019091 0.0190896 0.0190878 0.0190853 0.0190822 0.0190782 0.0190734 0.0190676 0.0190607 0.0190526 0.0190431 0.0190323 0.01902 0.0190061 0.0189905 0.0189732 0.0189541 0.0189331 0.0189103 0.0188856 0.0188591 0.0188308 0.0188008 0.0187692 0.0187361 0.0187018 0.0186663 0.0186299 0.0185928 0.018555 0.0185168 0.0184783 0.0184394 0.0184003 0.0183608 0.0183209 0.0182805 0.0182394 0.0181975 0.0181547 0.0181108 0.0180658 0.0180195 0.0179716 0.0179221 0.0178704 0.0178162 0.0177589 0.0176974 0.0176292 0.017548 0.017449 0.0173358 0.0172105 0.0170749 0.0169296 0.0167774 0.0166461 0.0165977 0.0166287 0.0165221 0.0162385 0.0158864 0.015493 0.0153926 0.0146987 0.014277 0 0 0 0 0 0 0 0 0 0 0 0 0 0 0 0 0 0 0 0 0 0 0 0 0 0 0 0 0 0 0 0 0 0 0 0 0 0 0 0 0 0 0 0 0 0 0 0 0 0 0 0 0 0 0 0 0 0 0 0 0 0 0 0 0 0 0 0 0 0 0 0 0 0 0 0 0 0 0 0 0 0 0 0 0 0 0 0 0 0 0 0 0 0 0 0 0 0 0 0 0 0 0 0 0 0 0 0 0 0 0 0 0 0 0 0 0 0 0 0 0 0 0 0 0 0 0 0 0 0 0 0 0 0 0 0 0 0 0 0 0 0 0 0 0 0 0 0 0 0 0 0 -4.33681e-19 
0.02 0.02 0.02 0.02 0.02 0.02 0.02 0.02 0.02 0.02 0.02 0.02 0.02 0.02 0.02 0.02 0.02 0.02 0.02 0.02 0.02 0.02 0.02 0.02 0.02 0.02 0.02 0.02 0.02 0.02 0.02 0.02 0.02 0.02 0.02 0.02 0.02 0.02 0.02 0.02 0.02 0.02 0.02 0.02 0.02 0.02 0.02 0.02 0.02 0.02 0.02 0.02 0.02 0.02 0.02 0.02 0.02 0.02 0.02 0.02 0.02 0.02 0.02 0.02 0.02 0.02 0.02 0.02 0.02 0.02 0.02 0.02 0.02 0.02 0.02 0.02 0.02 0.02 0.02 0.02 0.02 0.02 0.02 0.02 0.02 0.02 0.02 0.02 0.02 0.02 0.02 0.02 0.02 0.02 0.02 0.02 0.02 0.02 0.02 0.02 0.02 0.02 0.02 0.02 0.02 0.02 0.02 0.02 0.02 0.02 0.02 0.02 0.02 0.02 0.02 0.02 0.02 0.02 0.02 0.02 0.02 0.02 0.02 0.02 0.02 0.02 0.02 0.02 0.02 0.02 0.02 0.02 0.02 0.02 0.02 0.02 0.02 0.02 0.02 0.02 0.02 0.02 0.02 0.02 0.02 0.02 0.02 0.02 0.02 0.02 0.02 0.02 0.02 0.02 0.02 0.02 0.02 0.02 0.02 0.02 0.02 0.02 0.02 0.02 0.02 0.02 0.02 0.02 0.02 0.02 0.02 0.02 0.02 0.02 0.02 0.02 0.02 0.02 0.02 0.02 0.02 0.02 0.02 0.02 0.02 0.02 0.02 0.02 0.02 0.0199999 0.0199999 0.0199999 0.0199999 0.0199998 0.0199998 0.0199997 0.0199997 0.0199996 0.0199996 0.0199995 0.0199994 0.0199993 0.0199992 0.019999 0.0199989 0.0199987 0.0199986 0.0199984 0.0199981 0.0199979 0.0199976 0.0199973 0.019997 0.0199966 0.0199962 0.0199958 0.0199953 0.0199947 0.0199942 0.0199935 0.0199928 0.0199921 0.0199913 0.0199904 0.0199895 0.0199885 0.0199874 0.0199863 0.019985 0.0199837 0.0199823 0.0199808 0.0199792 0.0199775 0.0199757 0.0199738 0.0199718 0.0199696 0.0199674 0.019965 0.0199625 0.0199599 0.0199571 0.0199543 0.0199513 0.0199481 0.0199449 0.0199415 0.0199379 0.0199342 0.0199304 0.0199264 0.0199223 0.019918 0.0199136 0.019909 0.0199043 0.0198995 0.0198945 0.0198894 0.0198842 0.0198789 0.0198734 0.0198679 0.0198622 0.0198564 0.0198505 0.0198446 0.0198385 0.0198323 0.0198261 0.0198198 0.0198134 0.019807 0.0198005 0.0197939 0.0197873 0.0197807 0.0197741 0.0197674 0.0197607 0.0197541 0.0197474 0.0197407 0.0197341 0.0197274 0.0197209 0.0197143 0.0197078 0.0197014 0.019695 0.0196886 0.0196824 0.0196762 0.0196701 0.0196641 0.0196582 0.0196523 0.0196466 0.019641 0.0196354 0.0196299 0.0196246 0.0196193 0.0196141 0.0196091 0.019604 0.0195991 0.0195943 0.0195895 0.0195847 0.01958 0.0195754 0.0195708 0.0195662 0.0195616 0.0195569 0.0195523 0.0195476 0.0195429 0.0195382 0.0195333 0.0195284 0.0195234 0.0195182 0.019513 0.0195076 0.0195021 0.0194965 0.0194908 0.0194849 0.0194788 0.0194726 0.0194663 0.0194598 0.0194532 0.0194464 0.0194394 0.0194322 0.0194249 0.0194173 0.0194096 0.0194017 0.0193937 0.0193854 0.0193771 0.0193685 0.0193599 0.0193511 0.0193423 0.0193333 0.0193243 0.0193153 0.0193062 0.0192971 0.019288 0.019279 0.01927 0.0192611 0.0192522 0.0192435 0.0192349 0.0192265 0.0192183 0.0192102 0.0192024 0.0191948 0.0191875 0.0191804 0.0191736 0.0191671 0.0191609 0.019155 0.0191495 0.0191443 0.0191394 0.0191349 0.0191308 0.019127 0.0191235 0.0191204 0.0191177 0.0191153 0.0191132 0.0191114 0.01911 0.0191088 0.0191079 0.0191073 0.0191069 0.0191067 0.0191066 0.0191067 0.0191068 0.0191071 0.0191073 0.0191075 0.0191076 0.0191076 0.0191073 0.0191068 0.019106 0.0191048 0.019103 0.0191007 0.0190977 0.019094 0.0190894 0.0190839 0.0190773 0.0190696 0.0190606 0.0190502 0.0190384 0.019025 0.0190101 0.0189934 0.018975 0.0189548 0.0189328 0.018909 0.0188835 0.0188562 0.0188273 0.0187968 0.0187649 0.0187318 0.0186977 0.0186626 0.0186269 0.0185906 0.0185538 0.0185167 0.0184794 0.0184417 0.0184037 0.0183653 0.0183264 0.0182868 0.0182464 0.018205 0.0181626 0.018119 0.018074 0.0180273 0.0179786 0.0179275 0.0178733 0.0178154 0.0177528 0.0176838 0.0176047 0.0175101 0.0173975 0.0172684 0.0171252 0.0169702 0.0168111 0.0166717 0.0165852 0.016535 0.0164106 0.0161557 0.0158212 0.0154432 0.0150052 0.0140843 0.0126568 0.0103584 0.00839041 0.00625475 0 0 0 0 0 0 0 0 0 0 0 0 0 0 0 0 0 0 0 0 0 0 0 0 0 0 0 0 0 0 0 0 0 0 0 0 0 0 0 0 0 0 0 0 0 0 0 0 0 0 0 0 0 0 0 0 0 0 0 0 0 0 0 0 0 0 0 0 0 0 0 0 0 0 0 0 0 0 0 0 0 0 0 0 0 0 0 0 0 0 0 0 0 0 0 0 0 0 0 0 0 0 0 0 0 0 0 0 0 0 0 0 0 0 0 0 0 0 0 0 0 0 0 0 0 0 0 0 0 0 0 0 0 0 0 0 0 0 0 0 0 0 0 0 0 0 0 0 0 -2.1684e-19 
0.02 0.02 0.02 0.02 0.02 0.02 0.02 0.02 0.02 0.02 0.02 0.02 0.02 0.02 0.02 0.02 0.02 0.02 0.02 0.02 0.02 0.02 0.02 0.02 0.02 0.02 0.02 0.02 0.02 0.02 0.02 0.02 0.02 0.02 0.02 0.02 0.02 0.02 0.02 0.02 0.02 0.02 0.02 0.02 0.02 0.02 0.02 0.02 0.02 0.02 0.02 0.02 0.02 0.02 0.02 0.02 0.02 0.02 0.02 0.02 0.02 0.02 0.02 0.02 0.02 0.02 0.02 0.02 0.02 0.02 0.02 0.02 0.02 0.02 0.02 0.02 0.02 0.02 0.02 0.02 0.02 0.02 0.02 0.02 0.02 0.02 0.02 0.02 0.02 0.02 0.02 0.02 0.02 0.02 0.02 0.02 0.02 0.02 0.02 0.02 0.02 0.02 0.02 0.02 0.02 0.02 0.02 0.02 0.02 0.02 0.02 0.02 0.02 0.02 0.02 0.02 0.02 0.02 0.02 0.02 0.02 0.02 0.02 0.02 0.02 0.02 0.02 0.02 0.02 0.02 0.02 0.02 0.02 0.02 0.02 0.02 0.02 0.02 0.02 0.02 0.02 0.02 0.02 0.02 0.02 0.02 0.02 0.02 0.02 0.02 0.02 0.02 0.02 0.02 0.02 0.02 0.02 0.02 0.02 0.02 0.02 0.02 0.02 0.02 0.02 0.02 0.02 0.02 0.02 0.02 0.02 0.02 0.02 0.02 0.02 0.02 0.02 0.02 0.02 0.02 0.02 0.02 0.02 0.02 0.02 0.02 0.02 0.02 0.02 0.02 0.0199999 0.0199999 0.0199999 0.0199999 0.0199998 0.0199998 0.0199997 0.0199997 0.0199996 0.0199995 0.0199994 0.0199993 0.0199992 0.0199991 0.019999 0.0199988 0.0199986 0.0199984 0.0199982 0.019998 0.0199977 0.0199974 0.0199971 0.0199967 0.0199963 0.0199959 0.0199954 0.0199949 0.0199943 0.0199937 0.019993 0.0199923 0.0199915 0.0199906 0.0199897 0.0199887 0.0199877 0.0199865 0.0199853 0.019984 0.0199826 0.0199811 0.0199796 0.0199779 0.0199761 0.0199742 0.0199722 0.0199701 0.0199679 0.0199655 0.019963 0.0199605 0.0199577 0.0199549 0.0199519 0.0199488 0.0199456 0.0199422 0.0199387 0.019935 0.0199312 0.0199273 0.0199232 0.019919 0.0199146 0.01991 0.0199053 0.0199005 0.0198956 0.0198905 0.0198854 0.0198801 0.0198746 0.0198691 0.0198635 0.0198577 0.0198519 0.0198459 0.0198398 0.0198337 0.0198275 0.0198212 0.0198148 0.0198084 0.0198019 0.0197954 0.0197888 0.0197822 0.0197756 0.0197689 0.0197622 0.0197555 0.0197488 0.0197422 0.0197355 0.0197289 0.0197223 0.0197157 0.0197092 0.0197027 0.0196963 0.0196899 0.0196836 0.0196774 0.0196712 0.0196651 0.0196592 0.0196533 0.0196475 0.0196417 0.0196361 0.0196306 0.0196251 0.0196198 0.0196145 0.0196093 0.0196042 0.0195992 0.0195942 0.0195893 0.0195845 0.0195797 0.019575 0.0195702 0.0195655 0.0195608 0.0195561 0.0195514 0.0195467 0.019542 0.0195372 0.0195323 0.0195274 0.0195224 0.0195174 0.0195123 0.0195071 0.0195018 0.0194964 0.0194909 0.0194853 0.0194795 0.0194737 0.0194677 0.0194616 0.0194553 0.0194488 0.0194422 0.0194353 0.0194284 0.0194212 0.0194139 0.0194065 0.0193989 0.0193911 0.0193832 0.0193752 0.019367 0.0193588 0.0193504 0.019342 0.0193335 0.019325 0.0193164 0.0193078 0.0192993 0.0192908 0.0192823 0.0192738 0.0192655 0.0192573 0.0192492 0.0192412 0.0192334 0.0192258 0.0192183 0.0192111 0.0192042 0.0191974 0.019191 0.0191848 0.0191789 0.0191732 0.0191679 0.0191629 0.0191583 0.0191539 0.0191499 0.0191463 0.0191429 0.0191399 0.0191372 0.0191348 0.0191328 0.019131 0.0191296 0.0191284 0.0191275 0.0191268 0.0191263 0.0191261 0.0191259 0.019126 0.0191261 0.0191263 0.0191265 0.0191266 0.0191267 0.0191267 0.0191265 0.0191261 0.0191253 0.0191242 0.0191226 0.0191205 0.0191177 0.0191142 0.01911 0.0191048 0.0190986 0.0190914 0.0190829 0.0190731 0.019062 0.0190494 0.0190352 0.0190194 0.019002 0.0189829 0.018962 0.0189394 0.0189151 0.0188892 0.0188618 0.0188328 0.0188026 0.0187713 0.0187389 0.0187057 0.0186719 0.0186376 0.0186029 0.0185679 0.0185327 0.0184972 0.0184615 0.0184253 0.0183886 0.0183514 0.0183133 0.0182743 0.0182341 0.0181927 0.0181498 0.0181049 0.0180577 0.0180077 0.017954 0.0178958 0.0178321 0.0177612 0.0176807 0.0175862 0.0174736 0.0173417 0.0171916 0.0170276 0.0168596 0.0167063 0.0165842 0.0164773 0.0163192 0.0160646 0.0157272 0.0153182 0.0147583 0.0137834 0.012102 0.010147 0.00661493 0.00267051 0 0 0 0 0 0 0 0 0 0 0 0 0 0 0 0 0 0 0 0 0 0 0 0 0 0 0 0 0 0 0 0 0 0 0 0 0 0 0 0 0 0 0 0 0 0 0 0 0 0 0 0 0 0 0 0 0 0 0 0 0 0 0 0 0 0 0 0 0 0 0 0 0 0 0 0 0 0 0 0 0 0 0 0 0 0 0 0 0 0 0 0 0 0 0 0 0 0 0 0 0 0 0 0 0 0 0 0 0 0 0 0 0 0 0 0 0 0 0 0 0 0 0 0 0 0 0 0 0 0 0 0 0 0 0 0 0 0 0 0 0 0 0 0 0 0 0 0 -0.00555275 -1.0842e-19 
0.02 0.02 0.02 0.02 0.02 0.02 0.02 0.02 0.02 0.02 0.02 0.02 0.02 0.02 0.02 0.02 0.02 0.02 0.02 0.02 0.02 0.02 0.02 0.02 0.02 0.02 0.02 0.02 0.02 0.02 0.02 0.02 0.02 0.02 0.02 0.02 0.02 0.02 0.02 0.02 0.02 0.02 0.02 0.02 0.02 0.02 0.02 0.02 0.02 0.02 0.02 0.02 0.02 0.02 0.02 0.02 0.02 0.02 0.02 0.02 0.02 0.02 0.02 0.02 0.02 0.02 0.02 0.02 0.02 0.02 0.02 0.02 0.02 0.02 0.02 0.02 0.02 0.02 0.02 0.02 0.02 0.02 0.02 0.02 0.02 0.02 0.02 0.02 0.02 0.02 0.02 0.02 0.02 0.02 0.02 0.02 0.02 0.02 0.02 0.02 0.02 0.02 0.02 0.02 0.02 0.02 0.02 0.02 0.02 0.02 0.02 0.02 0.02 0.02 0.02 0.02 0.02 0.02 0.02 0.02 0.02 0.02 0.02 0.02 0.02 0.02 0.02 0.02 0.02 0.02 0.02 0.02 0.02 0.02 0.02 0.02 0.02 0.02 0.02 0.02 0.02 0.02 0.02 0.02 0.02 0.02 0.02 0.02 0.02 0.02 0.02 0.02 0.02 0.02 0.02 0.02 0.02 0.02 0.02 0.02 0.02 0.02 0.02 0.02 0.02 0.02 0.02 0.02 0.02 0.02 0.02 0.02 0.02 0.02 0.02 0.02 0.02 0.02 0.02 0.02 0.02 0.02 0.02 0.02 0.02 0.02 0.02 0.02 0.02 0.02 0.02 0.0199999 0.0199999 0.0199999 0.0199998 0.0199998 0.0199997 0.0199997 0.0199996 0.0199996 0.0199995 0.0199994 0.0199993 0.0199992 0.019999 0.0199989 0.0199987 0.0199985 0.0199983 0.0199981 0.0199978 0.0199975 0.0199972 0.0199968 0.0199964 0.019996 0.0199955 0.019995 0.0199945 0.0199939 0.0199932 0.0199925 0.0199917 0.0199909 0.01999 0.019989 0.019988 0.0199869 0.0199857 0.0199844 0.019983 0.0199815 0.01998 0.0199783 0.0199766 0.0199747 0.0199727 0.0199706 0.0199685 0.0199661 0.0199637 0.0199611 0.0199585 0.0199556 0.0199527 0.0199496 0.0199464 0.0199431 0.0199396 0.019936 0.0199322 0.0199283 0.0199243 0.0199201 0.0199158 0.0199113 0.0199066 0.0199019 0.019897 0.019892 0.0198868 0.0198815 0.0198762 0.0198707 0.019865 0.0198593 0.0198535 0.0198476 0.0198416 0.0198355 0.0198293 0.019823 0.0198167 0.0198103 0.0198038 0.0197973 0.0197907 0.0197841 0.0197775 0.0197708 0.0197642 0.0197575 0.0197508 0.0197441 0.0197374 0.0197308 0.0197241 0.0197175 0.019711 0.0197045 0.019698 0.0196916 0.0196853 0.019679 0.0196728 0.0196666 0.0196606 0.0196546 0.0196487 0.0196429 0.0196372 0.0196316 0.0196261 0.0196206 0.0196152 0.01961 0.0196048 0.0195996 0.0195946 0.0195895 0.0195846 0.0195797 0.0195749 0.01957 0.0195653 0.0195605 0.0195558 0.019551 0.0195463 0.0195415 0.0195368 0.019532 0.0195272 0.0195224 0.0195175 0.0195126 0.0195076 0.0195025 0.0194974 0.0194922 0.0194869 0.0194815 0.019476 0.0194703 0.0194645 0.0194586 0.0194525 0.0194463 0.0194399 0.0194334 0.0194268 0.01942 0.019413 0.0194059 0.0193987 0.0193914 0.0193839 0.0193764 0.0193687 0.019361 0.0193531 0.0193453 0.0193374 0.0193294 0.0193215 0.0193135 0.0193056 0.0192977 0.0192898 0.0192821 0.0192744 0.0192669 0.0192594 0.0192521 0.019245 0.0192381 0.0192313 0.0192247 0.0192184 0.0192123 0.0192065 0.0192009 0.0191956 0.0191906 0.0191858 0.0191814 0.0191772 0.0191734 0.0191698 0.0191666 0.0191636 0.019161 0.0191587 0.0191566 0.0191549 0.0191534 0.0191522 0.0191512 0.0191505 0.01915 0.0191496 0.0191494 0.0191494 0.0191494 0.0191495 0.0191497 0.0191498 0.0191499 0.0191499 0.0191497 0.0191493 0.0191487 0.0191476 0.0191462 0.0191443 0.0191418 0.0191387 0.0191348 0.01913 0.0191244 0.0191177 0.0191099 0.0191008 0.0190905 0.0190788 0.0190657 0.019051 0.0190348 0.0190169 0.0189975 0.0189764 0.0189537 0.0189296 0.0189039 0.018877 0.0188488 0.0188195 0.0187894 0.0187586 0.0187272 0.0186954 0.0186633 0.018631 0.0185985 0.0185658 0.0185329 0.0184997 0.018466 0.0184317 0.0183967 0.0183607 0.0183236 0.018285 0.0182447 0.0182022 0.018157 0.0181083 0.0180554 0.0179971 0.0179322 0.0178592 0.0177758 0.0176785 0.0175633 0.0174273 0.0172707 0.0170977 0.0169181 0.0167457 0.016587 0.0164261 0.0162242 0.0159463 0.0155889 0.0151366 0.0145019 0.0134813 0.011722 0.00957885 0.00628982 0.00315963 0 0 0 0 0 0 0 0 0 0 0 0 0 0 0 0 0 0 0 0 0 0 0 0 0 0 0 0 0 0 0 0 0 0 0 0 0 0 0 0 0 0 0 0 0 0 0 0 0 0 0 0 0 0 0 0 0 0 0 0 0 0 0 0 0 0 0 0 0 0 0 0 0 0 0 0 0 0 0 0 0 0 0 0 0 0 0 0 0 0 0 0 0 0 0 0 0 0 0 0 0 0 0 0 0 0 0 0 0 0 0 0 0 0 0 0 0 0 0 0 0 0 0 0 0 0 0 0 0 0 0 0 0 0 0 0 0 0 0 0 0 0 0 0 0 0 0 0 -0.00841835 -4.33681e-19 
0.02 0.02 0.02 0.02 0.02 0.02 0.02 0.02 0.02 0.02 0.02 0.02 0.02 0.02 0.02 0.02 0.02 0.02 0.02 0.02 0.02 0.02 0.02 0.02 0.02 0.02 0.02 0.02 0.02 0.02 0.02 0.02 0.02 0.02 0.02 0.02 0.02 0.02 0.02 0.02 0.02 0.02 0.02 0.02 0.02 0.02 0.02 0.02 0.02 0.02 0.02 0.02 0.02 0.02 0.02 0.02 0.02 0.02 0.02 0.02 0.02 0.02 0.02 0.02 0.02 0.02 0.02 0.02 0.02 0.02 0.02 0.02 0.02 0.02 0.02 0.02 0.02 0.02 0.02 0.02 0.02 0.02 0.02 0.02 0.02 0.02 0.02 0.02 0.02 0.02 0.02 0.02 0.02 0.02 0.02 0.02 0.02 0.02 0.02 0.02 0.02 0.02 0.02 0.02 0.02 0.02 0.02 0.02 0.02 0.02 0.02 0.02 0.02 0.02 0.02 0.02 0.02 0.02 0.02 0.02 0.02 0.02 0.02 0.02 0.02 0.02 0.02 0.02 0.02 0.02 0.02 0.02 0.02 0.02 0.02 0.02 0.02 0.02 0.02 0.02 0.02 0.02 0.02 0.02 0.02 0.02 0.02 0.02 0.02 0.02 0.02 0.02 0.02 0.02 0.02 0.02 0.02 0.02 0.02 0.02 0.02 0.02 0.02 0.02 0.02 0.02 0.02 0.02 0.02 0.02 0.02 0.02 0.02 0.02 0.02 0.02 0.02 0.02 0.02 0.02 0.02 0.02 0.02 0.02 0.02 0.02 0.02 0.02 0.02 0.02 0.02 0.02 0.0199999 0.0199999 0.0199999 0.0199998 0.0199998 0.0199997 0.0199997 0.0199996 0.0199995 0.0199994 0.0199993 0.0199992 0.0199991 0.0199989 0.0199988 0.0199986 0.0199984 0.0199982 0.0199979 0.0199976 0.0199973 0.019997 0.0199966 0.0199962 0.0199957 0.0199952 0.0199947 0.0199941 0.0199935 0.0199928 0.019992 0.0199912 0.0199903 0.0199894 0.0199883 0.0199872 0.0199861 0.0199848 0.0199835 0.019982 0.0199805 0.0199789 0.0199771 0.0199753 0.0199734 0.0199713 0.0199692 0.0199669 0.0199645 0.0199619 0.0199593 0.0199565 0.0199536 0.0199506 0.0199474 0.0199441 0.0199407 0.0199371 0.0199334 0.0199296 0.0199256 0.0199215 0.0199172 0.0199127 0.0199082 0.0199035 0.0198986 0.0198936 0.0198885 0.0198833 0.019878 0.0198725 0.019867 0.0198613 0.0198555 0.0198496 0.0198436 0.0198376 0.0198314 0.0198252 0.0198189 0.0198125 0.0198061 0.0197996 0.019793 0.0197865 0.0197798 0.0197732 0.0197665 0.0197599 0.0197532 0.0197465 0.0197398 0.0197331 0.0197265 0.0197199 0.0197133 0.0197067 0.0197002 0.0196938 0.0196874 0.0196811 0.0196748 0.0196686 0.0196625 0.0196564 0.0196505 0.0196446 0.0196388 0.0196331 0.0196274 0.0196219 0.0196164 0.019611 0.0196057 0.0196005 0.0195953 0.0195902 0.0195852 0.0195802 0.0195753 0.0195704 0.0195656 0.0195608 0.019556 0.0195513 0.0195466 0.0195419 0.0195373 0.0195326 0.019528 0.0195233 0.0195187 0.019514 0.0195092 0.0195044 0.0194996 0.0194947 0.0194897 0.0194846 0.0194794 0.0194742 0.0194688 0.0194633 0.0194577 0.0194519 0.0194461 0.0194401 0.019434 0.0194277 0.0194214 0.0194149 0.0194083 0.0194016 0.0193948 0.0193879 0.0193809 0.0193738 0.0193667 0.0193595 0.0193523 0.0193451 0.0193378 0.0193306 0.0193233 0.0193161 0.0193089 0.0193018 0.0192948 0.0192878 0.019281 0.0192743 0.0192677 0.0192613 0.019255 0.019249 0.0192431 0.0192374 0.019232 0.0192268 0.0192218 0.019217 0.0192126 0.0192084 0.0192044 0.0192007 0.0191973 0.0191942 0.0191914 0.0191888 0.0191865 0.0191845 0.0191827 0.0191812 0.0191799 0.0191789 0.0191781 0.0191775 0.019177 0.0191767 0.0191766 0.0191766 0.0191766 0.0191767 0.0191768 0.0191768 0.0191768 0.0191766 0.0191763 0.0191757 0.0191749 0.0191736 0.0191719 0.0191697 0.019167 0.0191635 0.0191593 0.0191542 0.0191482 0.0191411 0.019133 0.0191236 0.019113 0.0191011 0.0190877 0.0190729 0.0190566 0.0190388 0.0190196 0.0189988 0.0189767 0.0189532 0.0189285 0.0189027 0.018876 0.0188485 0.0188204 0.0187918 0.018763 0.0187339 0.0187047 0.0186755 0.0186461 0.0186166 0.0185868 0.0185567 0.018526 0.0184945 0.0184621 0.0184285 0.0183933 0.0183561 0.0183163 0.0182733 0.0182263 0.0181742 0.0181158 0.0180498 0.0179744 0.0178875 0.0177859 0.0176658 0.0175241 0.01736 0.0171771 0.0169833 0.0167879 0.0165924 0.016382 0.0161299 0.0158129 0.0154206 0.0149232 0.0142354 0.0131973 0.011447 0.00874843 0.00712974 0.00182681 0 0 0 0 0 0 0 0 0 0 0 0 0 0 0 0 0 0 0 0 0 0 0 0 0 0 0 0 0 0 0 0 0 0 0 0 0 0 0 0 0 0 0 0 0 0 0 0 0 0 0 0 0 0 0 0 0 0 0 0 0 0 0 0 0 0 0 0 0 0 0 0 0 0 0 0 0 0 0 0 0 0 0 0 0 0 0 0 0 0 0 0 0 0 0 0 0 0 0 0 0 0 0 0 0 0 0 0 0 0 0 0 0 0 0 0 0 0 0 0 0 0 0 0 0 0 0 0 0 0 0 0 0 0 0 0 0 0 0 0 0 0 0 0 0 0 0 -0.018886 -0.0112005 0 