# vtk DataFile Version 2.0
iteration 2025
ASCII

DATASET STRUCTURED_POINTS
DIMENSIONS 621 64 1
ORIGIN 0 0 0
SPACING 0.00161031 0.00161031 0.00161031

POINT_DATA 39744
SCALARS P float 1
LOOKUP_TABLE default
0 0 0 0 0 0 0 0 0 0 0 0 0 0 0 0 0 0 0 0 0 0 0 0 0 0 0 0 0 0 0 0 0 0 0 0 0 0 0 0 0 0 0 0 0 0 0 0 0 0 0 0 0 0 0 0 0 0 0 0 0 0 0 0 0 0 0 0 0 0 0 0 0 0 0 0 0 0 0 0 0 0 0 0 0 0 0 0 0 0 0 0 0 0 0 0 0 0 0 0 0 0 0 0 0 0 0 0 0 0 0 0 0 0 0 0 0 0 0 0 0 0 0 0 0 0 0 0 0 0 0 0 0 0 0 0 0 0 0 0 0 0 0 0 0 0 0 0 0 0 0 0 0 0 0 0 0 0 0 0 0 0 0 0 0 0 0 0 0 0 0 0 0 0 0 0 0 0 0 0 0 0 0 0 0 0 0 0 0 0 0 0 0 0 0 0 0 0 0 0 0 0 0 0 0 0 0 0 0 0 0 0 0 0 0 0 0 0 0 0 0 0 0 0 0 0 0 0 0 0 0 0 0 0 0 0 0 0 0 0 0 0 0 0 0 0 0 0 0 0 0 0 0 0 0 0 0 0 0 0 0 0 0 0 0 0 0 0 0 0 0 0 0 0 0 0 0 0 0 0 0 0 0 0 0 0 0 0 0 0 0 0 0 0 0 0 0 0 0 0 0 0 0 0 0 0 0 0 0 0 0 0 0 0 0 0 0 0 0 0 0 0 0 0 0 0 0 0 0 0 0 0 0 0 0 0 0 0 0 0 0 0 0 0 0 0 0 0 0 0 0 0 0 0 0 0 0 0 0 0 0 0 0 0 0 0 0 0 0 0 0 0 0 0 0 0 0 0 0 0 0 0 0 0 0 0 0 0 0 0 0 0 0 0 0 0 0 0 0 0 0 0 0 0 0 0 0 0 0 0 0 0 0 0 0 0 0 0 0 0 0 0 0 0 0 0 0 0 0 0 0 0 0 0 0 0 0 0 0 0 0 0 0 0 0 0 0 0 0 0 0 0 0 0 0 0 0 0 0 0 0 0 0 0 0 0 0 0 0 0 0 0 0 0 0 0 0 0 0 0 0 0 0 0 0 0 0 0 0 0 0 0 0 0 0 0 0 0 0 0 0 0 0 0 0 0 0 0 0 0 0 0 0 0 0 0 0 0 0 0 0 0 0 0 0 0 0 0 0 0 0 0 0 0 0 0 0 0 0 0 0 0 0 0 0 0 0 0 0 0 0 0 0 0 0 0 0 0 0 0 0 0 0 0 0 0 0 0 0 0 0 0 0 0 0 0 0 0 0 0 0 0 0 0 0 0 0 0 0 0 0 0 0 0 0 0 0 0 0 0 0 0 0 0 0 0 0 0 0 0 0 0 0 0 0 0 0 0 0 0 0 
0.02 0.02 0.02 0.02 0.02 0.02 0.02 0.02 0.02 0.02 0.02 0.02 0.02 0.02 0.02 0.02 0.02 0.02 0.02 0.02 0.02 0.02 0.02 0.02 0.02 0.02 0.02 0.02 0.02 0.02 0.02 0.02 0.02 0.02 0.02 0.02 0.02 0.02 0.02 0.02 0.02 0.02 0.02 0.02 0.02 0.02 0.02 0.02 0.02 0.02 0.02 0.02 0.02 0.02 0.02 0.02 0.02 0.02 0.02 0.02 0.02 0.02 0.02 0.02 0.02 0.02 0.02 0.02 0.02 0.02 0.02 0.02 0.02 0.02 0.02 0.02 0.02 0.02 0.02 0.02 0.02 0.02 0.02 0.02 0.02 0.02 0.02 0.02 0.02 0.02 0.02 0.02 0.02 0.02 0.02 0.02 0.02 0.02 0.02 0.02 0.02 0.02 0.02 0.02 0.02 0.02 0.02 0.02 0.02 0.02 0.02 0.02 0.02 0.02 0.02 0.02 0.02 0.02 0.02 0.02 0.02 0.02 0.02 0.02 0.02 0.02 0.02 0.02 0.02 0.02 0.02 0.02 0.02 0.02 0.02 0.02 0.02 0.02 0.02 0.02 0.02 0.02 0.02 0.02 0.02 0.02 0.02 0.02 0.02 0.02 0.02 0.02 0.02 0.02 0.02 0.02 0.02 0.02 0.02 0.02 0.02 0.02 0.02 0.02 0.0199999 0.0199999 0.0199999 0.0199999 0.0199999 0.0199999 0.0199999 0.0199999 0.0199999 0.0199999 0.0199999 0.0199999 0.0199999 0.0199998 0.0199998 0.0199998 0.0199998 0.0199998 0.0199998 0.0199997 0.0199997 0.0199997 0.0199997 0.0199996 0.0199996 0.0199996 0.0199996 0.0199995 0.0199995 0.0199995 0.0199994 0.0199994 0.0199994 0.0199993 0.0199993 0.0199992 0.0199992 0.0199992 0.0199991 0.0199991 0.019999 0.019999 0.0199989 0.0199989 0.0199989 0.0199988 0.0199988 0.0199988 0.0199987 0.0199987 0.0199987 0.0199987 0.0199987 0.0199987 0.0199987 0.0199988 0.0199988 0.0199989 0.019999 0.0199991 0.0199992 0.0199993 0.0199995 0.0199997 0.0199999 0.0200001 0.0200004 0.0200008 0.0200011 0.0200015 0.020002 0.0200025 0.020003 0.0200037 0.0200043 0.0200051 0.0200059 0.0200068 0.0200077 0.0200088 0.0200099 0.0200111 0.0200124 0.0200138 0.0200154 0.020017 0.0200187 0.0200205 0.0200225 0.0200246 0.0200268 0.0200291 0.0200316 0.0200343 0.020037 0.0200399 0.020043 0.0200462 0.0200496 0.0200532 0.0200569 0.0200607 0.0200648 0.020069 0.0200734 0.0200779 0.0200827 0.0200876 0.0200927 0.0200978 0.0201031 0.0201087 0.0201144 0.0201204 0.0201265 0.0201327 0.0201392 0.0201458 0.0201526 0.0201595 0.0201666 0.0201739 0.0201813 0.0201889 0.0201966 0.0202044 0.0202123 0.0202204 0.0202286 0.0202369 0.0202453 0.0202538 0.0202624 0.020271 0.0202797 0.0202885 0.0202973 0.0203061 0.020315 0.0203238 0.0203327 0.0203416 0.0203504 0.0203592 0.020368 0.0203766 0.0203853 0.0203938 0.0204022 0.0204105 0.0204187 0.0204268 0.0204346 0.0204424 0.0204499 0.0204573 0.0204644 0.0204714 0.0204781 0.0204846 0.0204908 0.0204968 0.0205025 0.0205079 0.020513 0.0205178 0.0205224 0.0205266 0.0205305 0.020534 0.0205373 0.0205402 0.0205427 0.020545 0.0205468 0.0205484 0.0205496 0.0205504 0.0205508 0.020551 0.0205508 0.0205502 0.0205495 0.0205486 0.0205471 0.0205456 0.020544 0.0205421 0.0205399 0.0205376 0.020535 0.0205323 0.0205294 0.0205263 0.020523 0.0205197 0.0205162 0.0205126 0.0205089 0.0205052 0.0205014 0.0204976 0.0204937 0.0204899 0.0204861 0.0204823 0.0204786 0.0204749 0.0204714 0.0204679 0.0204645 0.0204613 0.0204582 0.0204552 0.0204524 0.0204498 0.0204474 0.0204451 0.0204431 0.0204413 0.0204396 0.0204382 0.020437 0.020436 0.0204352 0.0204346 0.0204343 0.0204341 0.020434 0.0204342 0.0204345 0.020435 0.0204355 0.0204362 0.0204369 0.0204377 0.0204385 0.0204393 0.0204401 0.0204408 0.0204413 0.0204418 0.020442 0.020442 0.0204417 0.0204412 0.0204402 0.0204389 0.0204372 0.0204349 0.0204322 0.0204289 0.020425 0.0204204 0.0204152 0.0204094 0.0204028 0.0203955 0.0203874 0.0203785 0.0203689 0.0203584 0.0203471 0.020335 0.020322 0.0203082 0.0202934 0.0202778 0.0202611 0.0202436 0.0202249 0.0202053 0.0201845 0.0201626 0.0201396 0.0201153 0.0200899 0.0200632 0.0200354 0.0200065 0.0199765 0.0199455 0.0199138 0.0198815 0.0198488 0.0198158 0.0197829 0.0197502 0.0197179 0.0196861 0.0196548 0.0196238 0.019593 0.0195622 0.0195307 0.0194982 0.019464 0.0194275 0.0193879 0.0193417 0.0192848 0.0192228 0.019155 0.0190811 0.0189977 0.0189059 0.018805 0.0186965 0.0185796 0.0184499 0.0183015 0.0181262 0.0179158 0.0176577 0.0173404 0.0169634 0.0165919 0.0163838 0.0162405 0.0181206 0 0 0 0 0 0 0 0 0 0 0 0 0 0 0 0 0 0 0 0 0 0 0 0 0 0 0 0 0 0 0 0 0 0 0 0 0 0 0 0 0 0 0 0 0 0 0 0 0 0 0 0 0 0 0 0 0 0 0 0 0 0 0 0 0 0 0 0 0 0 0 0 0 0 0 0 0 0 0 0 0 0 0 0 0 0 0 0 0 0 0 0 0 0 0 0 0 0 0 0 0 0 0 0 0 0 0 0 0 0 0 0 0 0 0 0 0 0 0 0 0 0 0 0 0 0 0 0 0 0 0 0 0 0 0 0 0 
0.02 0.02 0.02 0.02 0.02 0.02 0.02 0.02 0.02 0.02 0.02 0.02 0.02 0.02 0.02 0.02 0.02 0.02 0.02 0.02 0.02 0.02 0.02 0.02 0.02 0.02 0.02 0.02 0.02 0.02 0.02 0.02 0.02 0.02 0.02 0.02 0.02 0.02 0.02 0.02 0.02 0.02 0.02 0.02 0.02 0.02 0.02 0.02 0.02 0.02 0.02 0.02 0.02 0.02 0.02 0.02 0.02 0.02 0.02 0.02 0.02 0.02 0.02 0.02 0.02 0.02 0.02 0.02 0.02 0.02 0.02 0.02 0.02 0.02 0.02 0.02 0.02 0.02 0.02 0.02 0.02 0.02 0.02 0.02 0.02 0.02 0.02 0.02 0.02 0.02 0.02 0.02 0.02 0.02 0.02 0.02 0.02 0.02 0.02 0.02 0.02 0.02 0.02 0.02 0.02 0.02 0.02 0.02 0.02 0.02 0.02 0.02 0.02 0.02 0.02 0.02 0.02 0.02 0.02 0.02 0.02 0.02 0.02 0.02 0.02 0.02 0.02 0.02 0.02 0.02 0.02 0.02 0.02 0.02 0.02 0.02 0.02 0.02 0.02 0.02 0.02 0.02 0.02 0.02 0.02 0.02 0.02 0.02 0.02 0.02 0.02 0.02 0.02 0.02 0.02 0.02 0.02 0.02 0.02 0.02 0.02 0.02 0.02 0.02 0.0199999 0.0199999 0.0199999 0.0199999 0.0199999 0.0199999 0.0199999 0.0199999 0.0199999 0.0199999 0.0199999 0.0199999 0.0199999 0.0199998 0.0199998 0.0199998 0.0199998 0.0199998 0.0199998 0.0199997 0.0199997 0.0199997 0.0199997 0.0199997 0.0199996 0.0199996 0.0199996 0.0199995 0.0199995 0.0199995 0.0199994 0.0199994 0.0199994 0.0199993 0.0199993 0.0199992 0.0199992 0.0199992 0.0199991 0.0199991 0.019999 0.019999 0.019999 0.0199989 0.0199989 0.0199988 0.0199988 0.0199988 0.0199988 0.0199987 0.0199987 0.0199987 0.0199987 0.0199987 0.0199987 0.0199988 0.0199988 0.0199989 0.019999 0.0199991 0.0199992 0.0199993 0.0199995 0.0199997 0.0199999 0.0200001 0.0200004 0.0200007 0.0200011 0.0200015 0.020002 0.0200025 0.020003 0.0200036 0.0200043 0.020005 0.0200059 0.0200067 0.0200077 0.0200087 0.0200098 0.020011 0.0200123 0.0200137 0.0200152 0.0200169 0.0200186 0.0200204 0.0200224 0.0200244 0.0200266 0.020029 0.0200314 0.020034 0.0200368 0.0200397 0.0200427 0.0200459 0.0200493 0.0200528 0.0200565 0.0200604 0.0200644 0.0200686 0.0200729 0.0200775 0.0200822 0.0200871 0.0200921 0.0200973 0.0201026 0.0201081 0.0201138 0.0201197 0.0201258 0.0201321 0.0201385 0.0201451 0.0201518 0.0201587 0.0201658 0.020173 0.0201804 0.0201879 0.0201956 0.0202034 0.0202113 0.0202194 0.0202275 0.0202358 0.0202441 0.0202526 0.0202611 0.0202697 0.0202784 0.0202871 0.0202959 0.0203047 0.0203135 0.0203224 0.0203312 0.02034 0.0203488 0.0203576 0.0203663 0.020375 0.0203835 0.020392 0.0204004 0.0204087 0.0204169 0.0204249 0.0204327 0.0204404 0.0204479 0.0204553 0.0204624 0.0204693 0.020476 0.0204824 0.0204886 0.0204946 0.0205002 0.0205056 0.0205107 0.0205155 0.02052 0.0205241 0.020528 0.0205315 0.0205347 0.0205376 0.0205401 0.0205423 0.0205441 0.0205456 0.0205468 0.0205477 0.0205482 0.0205485 0.0205484 0.020548 0.0205473 0.0205465 0.0205455 0.0205441 0.0205425 0.0205407 0.0205386 0.0205364 0.0205339 0.0205312 0.0205284 0.0205253 0.0205222 0.0205189 0.0205155 0.020512 0.0205084 0.0205048 0.0205011 0.0204974 0.0204936 0.0204899 0.0204862 0.0204825 0.0204788 0.0204752 0.0204717 0.0204683 0.0204651 0.0204619 0.0204589 0.020456 0.0204532 0.0204507 0.0204483 0.0204461 0.0204441 0.0204423 0.0204407 0.0204394 0.0204382 0.0204372 0.0204365 0.0204359 0.0204355 0.0204353 0.0204353 0.0204355 0.0204358 0.0204363 0.0204368 0.0204375 0.0204382 0.020439 0.0204398 0.0204406 0.0204413 0.020442 0.0204426 0.020443 0.0204432 0.0204432 0.020443 0.0204424 0.0204415 0.0204402 0.0204385 0.0204363 0.0204336 0.0204303 0.0204265 0.020422 0.0204169 0.0204111 0.0204046 0.0203974 0.0203894 0.0203806 0.0203711 0.0203607 0.0203496 0.0203375 0.0203247 0.0203109 0.0202963 0.0202807 0.0202642 0.0202466 0.0202281 0.0202085 0.0201878 0.0201659 0.0201429 0.0201186 0.0200931 0.0200664 0.0200385 0.0200094 0.0199792 0.0199481 0.0199161 0.0198834 0.0198502 0.0198168 0.0197833 0.0197499 0.0197167 0.0196839 0.0196515 0.0196193 0.0195871 0.0195547 0.0195216 0.0194874 0.0194514 0.0194131 0.0193719 0.0193271 0.0192765 0.0192158 0.0191505 0.0190773 0.0189942 0.0189023 0.0188009 0.0186911 0.0185724 0.0184405 0.0182898 0.0181125 0.0179011 0.0176435 0.0173304 0.0169663 0.0166324 0.0164291 0.0156374 0.0159214 0.0152299 0.0143182 0.0135084 0.012567 0.0114816 0.0102024 0.00884021 0.00765986 0.00658804 0.00647733 0 0 0 0 0 0 0 0 0 0 0 0 0 0 0 0 0 0 0 0 0 0 0 0 0 0 0 0 0 0 0 0 0 0 0 0 0 0 0 0 0 0 0 0 0 0 0 0 0 0 0 0 0 0 0 0 0 0 0 0 0 0 0 0 0 0 0 0 0 0 0 0 0 0 0 0 0 0 0 0 0 0 0 0 0 0 0 0 0 0 0 0 0 0 0 0 0 0 0 0 0 0 0 0 0 0 0 0 0 0 0 0 0 0 0 0 0 0 0 0 0 0 0 0 0 0 0 
0.02 0.02 0.02 0.02 0.02 0.02 0.02 0.02 0.02 0.02 0.02 0.02 0.02 0.02 0.02 0.02 0.02 0.02 0.02 0.02 0.02 0.02 0.02 0.02 0.02 0.02 0.02 0.02 0.02 0.02 0.02 0.02 0.02 0.02 0.02 0.02 0.02 0.02 0.02 0.02 0.02 0.02 0.02 0.02 0.02 0.02 0.02 0.02 0.02 0.02 0.02 0.02 0.02 0.02 0.02 0.02 0.02 0.02 0.02 0.02 0.02 0.02 0.02 0.02 0.02 0.02 0.02 0.02 0.02 0.02 0.02 0.02 0.02 0.02 0.02 0.02 0.02 0.02 0.02 0.02 0.02 0.02 0.02 0.02 0.02 0.02 0.02 0.02 0.02 0.02 0.02 0.02 0.02 0.02 0.02 0.02 0.02 0.02 0.02 0.02 0.02 0.02 0.02 0.02 0.02 0.02 0.02 0.02 0.02 0.02 0.02 0.02 0.02 0.02 0.02 0.02 0.02 0.02 0.02 0.02 0.02 0.02 0.02 0.02 0.02 0.02 0.02 0.02 0.02 0.02 0.02 0.02 0.02 0.02 0.02 0.02 0.02 0.02 0.02 0.02 0.02 0.02 0.02 0.02 0.02 0.02 0.02 0.02 0.02 0.02 0.02 0.02 0.02 0.02 0.02 0.02 0.02 0.02 0.02 0.02 0.02 0.02 0.02 0.02 0.0199999 0.0199999 0.0199999 0.0199999 0.0199999 0.0199999 0.0199999 0.0199999 0.0199999 0.0199999 0.0199999 0.0199999 0.0199999 0.0199998 0.0199998 0.0199998 0.0199998 0.0199998 0.0199998 0.0199997 0.0199997 0.0199997 0.0199997 0.0199997 0.0199996 0.0199996 0.0199996 0.0199995 0.0199995 0.0199995 0.0199994 0.0199994 0.0199994 0.0199993 0.0199993 0.0199993 0.0199992 0.0199992 0.0199991 0.0199991 0.019999 0.019999 0.019999 0.0199989 0.0199989 0.0199988 0.0199988 0.0199988 0.0199988 0.0199987 0.0199987 0.0199987 0.0199987 0.0199987 0.0199987 0.0199988 0.0199988 0.0199989 0.019999 0.0199991 0.0199992 0.0199993 0.0199995 0.0199997 0.0199999 0.0200001 0.0200004 0.0200007 0.0200011 0.0200015 0.0200019 0.0200025 0.020003 0.0200036 0.0200043 0.020005 0.0200058 0.0200067 0.0200076 0.0200087 0.0200098 0.020011 0.0200123 0.0200137 0.0200152 0.0200168 0.0200185 0.0200203 0.0200222 0.0200243 0.0200265 0.0200288 0.0200312 0.0200338 0.0200366 0.0200395 0.0200425 0.0200457 0.020049 0.0200525 0.0200562 0.02006 0.020064 0.0200682 0.0200725 0.020077 0.0200817 0.0200865 0.0200915 0.0200967 0.020102 0.0201075 0.0201132 0.020119 0.0201251 0.0201313 0.0201376 0.0201442 0.0201509 0.0201578 0.0201648 0.020172 0.0201793 0.0201868 0.0201944 0.0202021 0.02021 0.020218 0.0202261 0.0202343 0.0202426 0.020251 0.0202594 0.020268 0.0202766 0.0202853 0.020294 0.0203027 0.0203114 0.0203202 0.020329 0.0203377 0.0203465 0.0203551 0.0203638 0.0203724 0.0203809 0.0203893 0.0203976 0.0204058 0.0204139 0.0204218 0.0204296 0.0204372 0.0204446 0.0204518 0.0204589 0.0204657 0.0204723 0.0204786 0.0204847 0.0204905 0.0204961 0.0205014 0.0205064 0.0205111 0.0205154 0.0205195 0.0205233 0.0205267 0.0205299 0.0205326 0.0205351 0.0205373 0.0205391 0.0205407 0.0205419 0.0205428 0.0205433 0.0205437 0.0205438 0.0205436 0.0205431 0.0205423 0.0205413 0.02054 0.0205385 0.0205368 0.0205348 0.0205326 0.0205302 0.0205277 0.0205249 0.020522 0.020519 0.0205159 0.0205126 0.0205093 0.0205058 0.0205023 0.0204988 0.0204952 0.0204916 0.0204881 0.0204845 0.020481 0.0204775 0.0204741 0.0204707 0.0204675 0.0204644 0.0204614 0.0204585 0.0204558 0.0204532 0.0204508 0.0204485 0.0204465 0.0204446 0.020443 0.0204415 0.0204402 0.0204391 0.0204383 0.0204376 0.0204371 0.0204368 0.0204367 0.0204368 0.020437 0.0204374 0.0204379 0.0204385 0.0204392 0.0204399 0.0204407 0.0204415 0.0204423 0.0204431 0.0204438 0.0204443 0.0204448 0.020445 0.020445 0.0204447 0.0204442 0.0204433 0.020442 0.0204403 0.0204381 0.0204354 0.0204321 0.0204283 0.0204239 0.0204188 0.020413 0.0204066 0.0203994 0.0203914 0.0203827 0.0203733 0.020363 0.0203519 0.0203399 0.0203271 0.0203135 0.0202989 0.0202834 0.020267 0.0202495 0.0202311 0.0202115 0.0201909 0.0201691 0.0201461 0.0201219 0.0200965 0.0200698 0.0200419 0.0200128 0.0199826 0.0199514 0.0199193 0.0198865 0.0198532 0.0198196 0.0197858 0.019752 0.0197184 0.019685 0.0196519 0.0196189 0.0195858 0.0195524 0.0195181 0.0194825 0.0194452 0.0194054 0.0193626 0.0193163 0.0192658 0.0192101 0.019147 0.0190753 0.0189949 0.0189039 0.0188026 0.0186918 0.0185706 0.0184357 0.0182818 0.0181017 0.0178891 0.0176361 0.0173343 0.0170022 0.0167 0.0165023 0.0162572 0.0157356 0.015028 0.0142678 0.0134433 0.0124713 0.0113912 0.0101944 0.00892856 0.00772333 0.00633766 0.00527593 0.00342924 0.00132263 -0.000748701 -0.00302788 -0.00494183 0 0 0 0 0 0 0 0 0 0 0 0 0 0 0 0 0 0 0 0 0 0 0 0 0 0 0 0 0 0 0 0 0 0 0 0 0 0 0 0 0 0 0 0 0 0 0 0 0 0 0 0 0 0 0 0 0 0 0 0 0 0 0 0 0 0 0 0 0 0 0 0 0 0 0 0 0 0 0 0 0 0 0 0 0 0 0 0 0 0 0 0 0 0 0 0 0 0 0 0 0 0 0 0 0 0 0 0 0 0 0 0 0 0 0 0 0 0 0 0 0 0 
0.02 0.02 0.02 0.02 0.02 0.02 0.02 0.02 0.02 0.02 0.02 0.02 0.02 0.02 0.02 0.02 0.02 0.02 0.02 0.02 0.02 0.02 0.02 0.02 0.02 0.02 0.02 0.02 0.02 0.02 0.02 0.02 0.02 0.02 0.02 0.02 0.02 0.02 0.02 0.02 0.02 0.02 0.02 0.02 0.02 0.02 0.02 0.02 0.02 0.02 0.02 0.02 0.02 0.02 0.02 0.02 0.02 0.02 0.02 0.02 0.02 0.02 0.02 0.02 0.02 0.02 0.02 0.02 0.02 0.02 0.02 0.02 0.02 0.02 0.02 0.02 0.02 0.02 0.02 0.02 0.02 0.02 0.02 0.02 0.02 0.02 0.02 0.02 0.02 0.02 0.02 0.02 0.02 0.02 0.02 0.02 0.02 0.02 0.02 0.02 0.02 0.02 0.02 0.02 0.02 0.02 0.02 0.02 0.02 0.02 0.02 0.02 0.02 0.02 0.02 0.02 0.02 0.02 0.02 0.02 0.02 0.02 0.02 0.02 0.02 0.02 0.02 0.02 0.02 0.02 0.02 0.02 0.02 0.02 0.02 0.02 0.02 0.02 0.02 0.02 0.02 0.02 0.02 0.02 0.02 0.02 0.02 0.02 0.02 0.02 0.02 0.02 0.02 0.02 0.02 0.02 0.02 0.02 0.02 0.02 0.02 0.02 0.02 0.02 0.0199999 0.0199999 0.0199999 0.0199999 0.0199999 0.0199999 0.0199999 0.0199999 0.0199999 0.0199999 0.0199999 0.0199999 0.0199999 0.0199998 0.0199998 0.0199998 0.0199998 0.0199998 0.0199998 0.0199997 0.0199997 0.0199997 0.0199997 0.0199997 0.0199996 0.0199996 0.0199996 0.0199995 0.0199995 0.0199995 0.0199994 0.0199994 0.0199994 0.0199993 0.0199993 0.0199993 0.0199992 0.0199992 0.0199991 0.0199991 0.019999 0.019999 0.019999 0.0199989 0.0199989 0.0199989 0.0199988 0.0199988 0.0199988 0.0199987 0.0199987 0.0199987 0.0199987 0.0199987 0.0199988 0.0199988 0.0199988 0.0199989 0.019999 0.0199991 0.0199992 0.0199993 0.0199995 0.0199997 0.0199999 0.0200001 0.0200004 0.0200007 0.0200011 0.0200015 0.0200019 0.0200024 0.020003 0.0200036 0.0200043 0.020005 0.0200058 0.0200067 0.0200076 0.0200086 0.0200097 0.0200109 0.0200122 0.0200136 0.0200151 0.0200167 0.0200183 0.0200202 0.0200221 0.0200241 0.0200263 0.0200286 0.020031 0.0200336 0.0200363 0.0200392 0.0200422 0.0200453 0.0200486 0.0200521 0.0200557 0.0200595 0.0200635 0.0200676 0.0200719 0.0200764 0.020081 0.0200858 0.0200908 0.0200959 0.0201012 0.0201066 0.0201123 0.0201181 0.020124 0.0201302 0.0201365 0.020143 0.0201496 0.0201564 0.0201634 0.0201705 0.0201777 0.0201851 0.0201927 0.0202003 0.0202081 0.020216 0.020224 0.0202321 0.0202404 0.0202487 0.020257 0.0202655 0.020274 0.0202826 0.0202912 0.0202998 0.0203084 0.0203171 0.0203258 0.0203344 0.020343 0.0203516 0.0203601 0.0203686 0.0203769 0.0203852 0.0203934 0.0204015 0.0204094 0.0204172 0.0204249 0.0204323 0.0204396 0.0204467 0.0204536 0.0204603 0.0204667 0.0204729 0.0204789 0.0204846 0.02049 0.0204952 0.0205 0.0205046 0.0205089 0.0205129 0.0205165 0.0205199 0.020523 0.0205257 0.0205282 0.0205304 0.0205322 0.0205338 0.020535 0.020536 0.0205367 0.0205371 0.0205372 0.0205371 0.0205367 0.020536 0.0205351 0.0205339 0.0205325 0.0205308 0.020529 0.0205269 0.0205247 0.0205223 0.0205197 0.020517 0.0205141 0.0205111 0.0205081 0.0205049 0.0205017 0.0204984 0.0204951 0.0204917 0.0204884 0.020485 0.0204817 0.0204784 0.0204751 0.020472 0.0204689 0.0204658 0.0204629 0.0204602 0.0204575 0.020455 0.0204526 0.0204504 0.0204484 0.0204465 0.0204449 0.0204434 0.0204421 0.020441 0.0204401 0.0204393 0.0204388 0.0204385 0.0204383 0.0204383 0.0204384 0.0204387 0.0204392 0.0204397 0.0204404 0.0204411 0.0204419 0.0204428 0.0204436 0.0204444 0.0204452 0.0204459 0.0204464 0.0204469 0.0204471 0.0204471 0.0204468 0.0204463 0.0204454 0.0204441 0.0204424 0.0204402 0.0204375 0.0204343 0.0204305 0.0204261 0.020421 0.0204153 0.0204089 0.0204018 0.020394 0.0203854 0.020376 0.0203658 0.0203548 0.020343 0.0203304 0.0203169 0.0203025 0.0202871 0.0202709 0.0202536 0.0202353 0.020216 0.0201955 0.020174 0.0201512 0.0201272 0.0201019 0.0200754 0.0200477 0.0200188 0.0199888 0.0199578 0.0199258 0.0198931 0.0198599 0.0198262 0.0197924 0.0197585 0.0197247 0.0196911 0.0196575 0.019624 0.0195902 0.0195559 0.0195207 0.019484 0.0194453 0.0194042 0.0193601 0.0193123 0.0192606 0.0192043 0.0191427 0.0190741 0.018996 0.0189076 0.0188079 0.0186966 0.018573 0.0184346 0.0182764 0.0180925 0.0178785 0.0176317 0.0173479 0.0170415 0.0167487 0.0164844 0.0161593 0.0156471 0.014993 0.0142362 0.0133959 0.0124251 0.0113661 0.010235 0.00904621 0.0078172 0.00652707 0.00500372 0.0031848 0.00127112 -0.000747627 -0.00266423 -0.00502348 -0.00747781 -0.01041 -0.0134607 0 0 0 0 0 0 0 0 0 0 0 0 0 0 0 0 0 0 0 0 0 0 0 0 0 0 0 0 0 0 0 0 0 0 0 0 0 0 0 0 0 0 0 0 0 0 0 0 0 0 0 0 0 0 0 0 0 0 0 0 0 0 0 0 0 0 0 0 0 0 0 0 0 0 0 0 0 0 0 0 0 0 0 0 0 0 0 0 0 0 0 0 0 0 0 0 0 0 0 0 0 0 0 0 0 0 0 0 0 0 0 0 0 0 0 0 0 0 -1.30104e-18 
0.02 0.02 0.02 0.02 0.02 0.02 0.02 0.02 0.02 0.02 0.02 0.02 0.02 0.02 0.02 0.02 0.02 0.02 0.02 0.02 0.02 0.02 0.02 0.02 0.02 0.02 0.02 0.02 0.02 0.02 0.02 0.02 0.02 0.02 0.02 0.02 0.02 0.02 0.02 0.02 0.02 0.02 0.02 0.02 0.02 0.02 0.02 0.02 0.02 0.02 0.02 0.02 0.02 0.02 0.02 0.02 0.02 0.02 0.02 0.02 0.02 0.02 0.02 0.02 0.02 0.02 0.02 0.02 0.02 0.02 0.02 0.02 0.02 0.02 0.02 0.02 0.02 0.02 0.02 0.02 0.02 0.02 0.02 0.02 0.02 0.02 0.02 0.02 0.02 0.02 0.02 0.02 0.02 0.02 0.02 0.02 0.02 0.02 0.02 0.02 0.02 0.02 0.02 0.02 0.02 0.02 0.02 0.02 0.02 0.02 0.02 0.02 0.02 0.02 0.02 0.02 0.02 0.02 0.02 0.02 0.02 0.02 0.02 0.02 0.02 0.02 0.02 0.02 0.02 0.02 0.02 0.02 0.02 0.02 0.02 0.02 0.02 0.02 0.02 0.02 0.02 0.02 0.02 0.02 0.02 0.02 0.02 0.02 0.02 0.02 0.02 0.02 0.02 0.02 0.02 0.02 0.02 0.02 0.02 0.02 0.02 0.02 0.02 0.02 0.0199999 0.0199999 0.0199999 0.0199999 0.0199999 0.0199999 0.0199999 0.0199999 0.0199999 0.0199999 0.0199999 0.0199999 0.0199999 0.0199998 0.0199998 0.0199998 0.0199998 0.0199998 0.0199998 0.0199997 0.0199997 0.0199997 0.0199997 0.0199997 0.0199996 0.0199996 0.0199996 0.0199995 0.0199995 0.0199995 0.0199995 0.0199994 0.0199994 0.0199993 0.0199993 0.0199993 0.0199992 0.0199992 0.0199991 0.0199991 0.0199991 0.019999 0.019999 0.0199989 0.0199989 0.0199989 0.0199988 0.0199988 0.0199988 0.0199988 0.0199988 0.0199987 0.0199987 0.0199988 0.0199988 0.0199988 0.0199989 0.0199989 0.019999 0.0199991 0.0199992 0.0199993 0.0199995 0.0199997 0.0199999 0.0200002 0.0200004 0.0200008 0.0200011 0.0200015 0.020002 0.0200025 0.020003 0.0200036 0.0200043 0.020005 0.0200058 0.0200066 0.0200076 0.0200086 0.0200097 0.0200109 0.0200121 0.0200135 0.020015 0.0200165 0.0200182 0.02002 0.0200219 0.0200239 0.0200261 0.0200283 0.0200307 0.0200333 0.020036 0.0200388 0.0200418 0.0200449 0.0200482 0.0200516 0.0200552 0.0200589 0.0200628 0.0200669 0.0200712 0.0200756 0.0200801 0.0200849 0.0200898 0.0200949 0.0201001 0.0201055 0.0201111 0.0201168 0.0201227 0.0201287 0.020135 0.0201414 0.0201479 0.0201546 0.0201615 0.0201685 0.0201757 0.020183 0.0201904 0.0201979 0.0202056 0.0202134 0.0202213 0.0202293 0.0202374 0.0202456 0.0202538 0.0202622 0.0202705 0.020279 0.0202874 0.0202959 0.0203044 0.0203129 0.0203214 0.0203299 0.0203384 0.0203468 0.0203552 0.0203635 0.0203717 0.0203798 0.0203878 0.0203957 0.0204035 0.0204111 0.0204186 0.0204259 0.020433 0.0204399 0.0204466 0.0204531 0.0204594 0.0204654 0.0204712 0.0204768 0.0204821 0.0204871 0.0204918 0.0204963 0.0205005 0.0205044 0.020508 0.0205113 0.0205143 0.0205171 0.0205195 0.0205217 0.0205235 0.0205251 0.0205264 0.0205274 0.0205282 0.0205286 0.0205288 0.0205287 0.0205283 0.0205278 0.0205269 0.0205258 0.0205246 0.020523 0.0205213 0.0205195 0.0205174 0.0205152 0.0205128 0.0205103 0.0205077 0.0205049 0.0205021 0.0204992 0.0204962 0.0204932 0.0204901 0.0204871 0.020484 0.0204809 0.0204779 0.0204749 0.0204719 0.020469 0.0204662 0.0204635 0.0204609 0.0204584 0.020456 0.0204538 0.0204517 0.0204497 0.0204479 0.0204463 0.0204449 0.0204436 0.0204425 0.0204416 0.0204409 0.0204404 0.02044 0.0204398 0.0204398 0.0204399 0.0204402 0.0204406 0.0204411 0.0204418 0.0204425 0.0204433 0.0204441 0.020445 0.0204459 0.0204467 0.0204475 0.0204482 0.0204488 0.0204492 0.0204494 0.0204495 0.0204492 0.0204486 0.0204477 0.0204464 0.0204447 0.0204426 0.0204399 0.0204367 0.020433 0.0204286 0.0204237 0.0204181 0.0204118 0.0204048 0.020397 0.0203886 0.0203794 0.0203694 0.0203586 0.020347 0.0203345 0.0203213 0.0203071 0.0202921 0.0202761 0.0202591 0.0202412 0.0202222 0.020202 0.0201808 0.0201584 0.0201348 0.0201099 0.0200838 0.0200565 0.0200279 0.0199983 0.0199676 0.019936 0.0199037 0.0198707 0.0198373 0.0198036 0.0197699 0.0197361 0.0197023 0.0196685 0.0196346 0.0196004 0.0195654 0.0195293 0.0194917 0.019452 0.0194097 0.0193642 0.0193152 0.0192621 0.0192045 0.0191419 0.0190735 0.0189975 0.0189114 0.0188135 0.0187025 0.0185773 0.0184354 0.0182728 0.0180849 0.0178697 0.0176292 0.0173641 0.0170757 0.0167805 0.016462 0.0160848 0.0155714 0.0149386 0.0141961 0.0133533 0.0124057 0.0113811 0.0102964 0.00913309 0.00784139 0.00647322 0.00488279 0.00311583 0.00122114 -0.000777751 -0.00288601 -0.00512466 -0.00751765 -0.00954382 -0.0127993 -0.0162539 -0.0204999 0 0 0 0 0 0 0 0 0 0 0 0 0 0 0 0 0 0 0 0 0 0 0 0 0 0 0 0 0 0 0 0 0 0 0 0 0 0 0 0 0 0 0 0 0 0 0 0 0 0 0 0 0 0 0 0 0 0 0 0 0 0 0 0 0 0 0 0 0 0 0 0 0 0 0 0 0 0 0 0 0 0 0 0 0 0 0 0 0 0 0 0 0 0 0 0 0 0 0 0 0 0 0 0 0 0 0 0 0 0 0 0 0 0 0 0 3.25261e-19 
0.02 0.02 0.02 0.02 0.02 0.02 0.02 0.02 0.02 0.02 0.02 0.02 0.02 0.02 0.02 0.02 0.02 0.02 0.02 0.02 0.02 0.02 0.02 0.02 0.02 0.02 0.02 0.02 0.02 0.02 0.02 0.02 0.02 0.02 0.02 0.02 0.02 0.02 0.02 0.02 0.02 0.02 0.02 0.02 0.02 0.02 0.02 0.02 0.02 0.02 0.02 0.02 0.02 0.02 0.02 0.02 0.02 0.02 0.02 0.02 0.02 0.02 0.02 0.02 0.02 0.02 0.02 0.02 0.02 0.02 0.02 0.02 0.02 0.02 0.02 0.02 0.02 0.02 0.02 0.02 0.02 0.02 0.02 0.02 0.02 0.02 0.02 0.02 0.02 0.02 0.02 0.02 0.02 0.02 0.02 0.02 0.02 0.02 0.02 0.02 0.02 0.02 0.02 0.02 0.02 0.02 0.02 0.02 0.02 0.02 0.02 0.02 0.02 0.02 0.02 0.02 0.02 0.02 0.02 0.02 0.02 0.02 0.02 0.02 0.02 0.02 0.02 0.02 0.02 0.02 0.02 0.02 0.02 0.02 0.02 0.02 0.02 0.02 0.02 0.02 0.02 0.02 0.02 0.02 0.02 0.02 0.02 0.02 0.02 0.02 0.02 0.02 0.02 0.02 0.02 0.02 0.02 0.02 0.02 0.02 0.02 0.02 0.02 0.02 0.0199999 0.0199999 0.0199999 0.0199999 0.0199999 0.0199999 0.0199999 0.0199999 0.0199999 0.0199999 0.0199999 0.0199999 0.0199999 0.0199998 0.0199998 0.0199998 0.0199998 0.0199998 0.0199998 0.0199997 0.0199997 0.0199997 0.0199997 0.0199997 0.0199996 0.0199996 0.0199996 0.0199996 0.0199995 0.0199995 0.0199995 0.0199994 0.0199994 0.0199994 0.0199993 0.0199993 0.0199992 0.0199992 0.0199992 0.0199991 0.0199991 0.019999 0.019999 0.019999 0.0199989 0.0199989 0.0199989 0.0199988 0.0199988 0.0199988 0.0199988 0.0199988 0.0199988 0.0199988 0.0199988 0.0199989 0.0199989 0.019999 0.019999 0.0199991 0.0199992 0.0199994 0.0199995 0.0199997 0.0199999 0.0200002 0.0200005 0.0200008 0.0200011 0.0200015 0.020002 0.0200025 0.020003 0.0200036 0.0200043 0.020005 0.0200058 0.0200066 0.0200075 0.0200085 0.0200096 0.0200108 0.020012 0.0200134 0.0200148 0.0200164 0.020018 0.0200198 0.0200217 0.0200237 0.0200258 0.020028 0.0200304 0.0200329 0.0200356 0.0200383 0.0200413 0.0200444 0.0200476 0.020051 0.0200545 0.0200582 0.020062 0.020066 0.0200702 0.0200746 0.0200791 0.0200837 0.0200886 0.0200936 0.0200987 0.0201041 0.0201095 0.0201152 0.020121 0.0201269 0.0201331 0.0201394 0.0201458 0.0201524 0.0201591 0.020166 0.0201731 0.0201802 0.0201875 0.020195 0.0202025 0.0202102 0.0202179 0.0202258 0.0202337 0.0202417 0.0202498 0.020258 0.0202662 0.0202745 0.0202827 0.0202911 0.0202994 0.0203077 0.020316 0.0203243 0.0203326 0.0203408 0.020349 0.0203571 0.0203651 0.020373 0.0203808 0.0203885 0.0203961 0.0204035 0.0204108 0.0204179 0.0204248 0.0204315 0.020438 0.0204443 0.0204504 0.0204563 0.0204619 0.0204673 0.0204724 0.0204773 0.0204819 0.0204863 0.0204904 0.0204942 0.0204977 0.020501 0.020504 0.0205067 0.0205091 0.0205112 0.0205131 0.0205147 0.020516 0.020517 0.0205177 0.0205182 0.0205185 0.0205185 0.0205182 0.0205177 0.020517 0.0205161 0.0205149 0.0205136 0.0205121 0.0205104 0.0205085 0.0205065 0.0205044 0.0205021 0.0204998 0.0204973 0.0204948 0.0204921 0.0204895 0.0204868 0.020484 0.0204813 0.0204785 0.0204758 0.0204731 0.0204704 0.0204678 0.0204653 0.0204628 0.0204604 0.0204582 0.020456 0.0204539 0.020452 0.0204502 0.0204486 0.0204471 0.0204458 0.0204446 0.0204436 0.0204428 0.0204421 0.0204416 0.0204413 0.0204411 0.0204411 0.0204413 0.0204416 0.020442 0.0204425 0.0204431 0.0204439 0.0204447 0.0204456 0.0204465 0.0204474 0.0204483 0.0204492 0.02045 0.0204507 0.0204513 0.0204517 0.0204519 0.0204519 0.0204517 0.0204511 0.0204502 0.020449 0.0204473 0.0204451 0.0204425 0.0204394 0.0204357 0.0204315 0.0204266 0.0204211 0.020415 0.0204081 0.0204006 0.0203923 0.0203833 0.0203736 0.020363 0.0203517 0.0203396 0.0203267 0.0203129 0.0202982 0.0202826 0.0202661 0.0202486 0.02023 0.0202104 0.0201897 0.0201678 0.0201447 0.0201204 0.0200948 0.0200681 0.0200401 0.0200111 0.019981 0.0199499 0.0199181 0.0198856 0.0198527 0.0198194 0.0197859 0.0197523 0.0197186 0.0196848 0.0196507 0.019616 0.0195805 0.0195438 0.0195053 0.0194647 0.0194213 0.0193747 0.0193244 0.01927 0.0192111 0.0191471 0.0190775 0.0190011 0.0189157 0.0188187 0.0187079 0.0185813 0.0184365 0.0182701 0.018079 0.0178628 0.0176263 0.0173736 0.0171005 0.0167968 0.0164564 0.0160332 0.0155103 0.0148815 0.0141492 0.0133201 0.0124039 0.0114063 0.0103388 0.00917814 0.00789501 0.00643485 0.00481689 0.00306635 0.00118754 -0.000822777 -0.00294694 -0.00521526 -0.00761031 -0.0101329 -0.0125022 -0.0155573 -0.0191979 -0.0239979 -0.0293924 0 0 0 0 0 0 0 0 0 0 0 0 0 0 0 0 0 0 0 0 0 0 0 0 0 0 0 0 0 0 0 0 0 0 0 0 0 0 0 0 0 0 0 0 0 0 0 0 0 0 0 0 0 0 0 0 0 0 0 0 0 0 0 0 0 0 0 0 0 0 0 0 0 0 0 0 0 0 0 0 0 0 0 0 0 0 0 0 0 0 0 0 0 0 0 0 0 0 0 0 0 0 0 0 0 0 0 0 0 0 0 0 0 -0.00325583 -1.0842e-18 