# vtk DataFile Version 2.0
iteration 891
ASCII

DATASET STRUCTURED_POINTS
DIMENSIONS 621 64 1
ORIGIN 0 0 0
SPACING 0.00161031 0.00161031 0.00161031

POINT_DATA 39744
SCALARS P float 1
LOOKUP_TABLE default
0 0 0 0 0 0 0 0 0 0 0 0 0 0 0 0 0 0 0 0 0 0 0 0 0 0 0 0 0 0 0 0 0 0 0 0 0 0 0 0 0 0 0 0 0 0 0 0 0 0 0 0 0 0 0 0 0 0 0 0 0 0 0 0 0 0 0 0 0 0 0 0 0 0 0 0 0 0 0 0 0 0 0 0 0 0 0 0 0 0 0 0 0 0 0 0 0 0 0 0 0 0 0 0 0 0 0 0 0 0 0 0 0 0 0 0 0 0 0 0 0 0 0 0 0 0 0 0 0 0 0 0 0 0 0 0 0 0 0 0 0 0 0 0 0 0 0 0 0 0 0 0 0 0 0 0 0 0 0 0 0 0 0 0 0 0 0 0 0 0 0 0 0 0 0 0 0 0 0 0 0 0 0 0 0 0 0 0 0 0 0 0 0 0 0 0 0 0 0 0 0 0 0 0 0 0 0 0 0 0 0 0 0 0 0 0 0 0 0 0 0 0 0 0 0 0 0 0 0 0 0 0 0 0 0 0 0 0 0 0 0 0 0 0 0 0 0 0 0 0 0 0 0 0 0 0 0 0 0 0 0 0 0 0 0 0 0 0 0 0 0 0 0 0 0 0 0 0 0 0 0 0 0 0 0 0 0 0 0 0 0 0 0 0 0 0 0 0 0 0 0 0 0 0 0 0 0 0 0 0 0 0 0 0 0 0 0 0 0 0 0 0 0 0 0 0 0 0 0 0 0 0 0 0 0 0 0 0 0 0 0 0 0 0 0 0 0 0 0 0 0 0 0 0 0 0 0 0 0 0 0 0 0 0 0 0 0 0 0 0 0 0 0 0 0 0 0 0 0 0 0 0 0 0 0 0 0 0 0 0 0 0 0 0 0 0 0 0 0 0 0 0 0 0 0 0 0 0 0 0 0 0 0 0 0 0 0 0 0 0 0 0 0 0 0 0 0 0 0 0 0 0 0 0 0 0 0 0 0 0 0 0 0 0 0 0 0 0 0 0 0 0 0 0 0 0 0 0 0 0 0 0 0 0 0 0 0 0 0 0 0 0 0 0 0 0 0 0 0 0 0 0 0 0 0 0 0 0 0 0 0 0 0 0 0 0 0 0 0 0 0 0 0 0 0 0 0 0 0 0 0 0 0 0 0 0 0 0 0 0 0 0 0 0 0 0 0 0 0 0 0 0 0 0 0 0 0 0 0 0 0 0 0 0 0 0 0 0 0 0 0 0 0 0 0 0 0 0 0 0 0 0 0 0 0 0 0 0 0 0 0 0 0 0 0 0 0 0 0 0 0 0 0 0 0 0 0 0 0 0 0 0 0 0 0 0 0 0 0 0 0 0 0 0 0 0 0 0 0 0 0 0 0 0 0 0 0 0 0 0 0 
0.02 0.02 0.02 0.02 0.02 0.02 0.02 0.02 0.02 0.02 0.02 0.02 0.02 0.02 0.02 0.02 0.02 0.02 0.02 0.02 0.02 0.02 0.02 0.02 0.02 0.02 0.02 0.02 0.02 0.02 0.02 0.02 0.0200001 0.0200001 0.0200001 0.0200001 0.0200001 0.0200001 0.0200001 0.0200001 0.0200002 0.0200002 0.0200002 0.0200002 0.0200003 0.0200003 0.0200003 0.0200004 0.0200004 0.0200005 0.0200005 0.0200006 0.0200007 0.0200007 0.0200008 0.0200009 0.0200011 0.0200012 0.0200013 0.0200015 0.0200017 0.0200018 0.0200021 0.0200023 0.0200026 0.0200028 0.0200032 0.0200035 0.0200039 0.0200043 0.0200047 0.0200052 0.0200057 0.0200063 0.0200069 0.0200075 0.0200081 0.0200088 0.0200095 0.0200103 0.0200111 0.0200119 0.0200127 0.0200135 0.0200143 0.020015 0.0200158 0.0200165 0.0200172 0.0200177 0.0200182 0.0200186 0.0200189 0.0200189 0.0200188 0.0200185 0.0200179 0.0200171 0.0200159 0.0200144 0.0200126 0.0200103 0.0200076 0.0200044 0.0200006 0.0199964 0.0199916 0.0199861 0.0199801 0.0199735 0.0199663 0.0199585 0.0199501 0.0199412 0.0199319 0.0199222 0.0199122 0.0199021 0.019892 0.019882 0.0198723 0.0198631 0.0198547 0.0198471 0.0198406 0.0198353 0.0198315 0.0198292 0.0198287 0.0198299 0.0198329 0.0198377 0.0198443 0.0198526 0.0198624 0.0198735 0.0198855 0.0198978 0.0199089 0.0199148 0.0199198 0.019927 0.0199345 0.0199412 0.0199464 0.0199498 0.0199509 0.0199495 0.0199455 0.0199387 0.0199292 0.0199169 0.0199021 0.019885 0.0198659 0.019845 0.019823 0.0198 0.0197767 0.0197533 0.0197304 0.0197082 0.0196872 0.0196677 0.01965 0.0196345 0.0196215 0.0196113 0.019604 0.0195991 0.0195951 0.0195883 0.0195668 0.0195194 0.0194598 0.0194307 0.0194064 0.0193741 0.019329 0.0192675 0.0191786 0.0190645 0.0189912 0.0192689 0.0198559 0.0225078 0 0 0 0 0 0 0 0 0 0 0 0 0 0 0 0 0 0 0 0 0 0 0 0 0 0 0 0 0 0 0 0 0 0 0 0 0 0 0 0 0 0 0 0 0 0 0 0 0 0 0 0 0 0 0 0 0 0 0 0 0 0 0 0 0 0 0 0 0 0 0 0 0 0 0 0 0 0 0 0 0 0 0 0 0 0 0 0 0 0 0 0 0 0 0 0 0 0 0 0 0 0 0 0 0 0 0 0 0 0 0 0 0 0 0 0 0 0 0 0 0 0 0 0 0 0 0 0 0 0 0 0 0 0 0 0 0 0 0 0 0 0 0 0 0 0 0 0 0 0 0 0 0 0 0 0 0 0 0 0 0 0 0 0 0 0 0 0 0 0 0 0 0 0 0 0 0 0 0 0 0 0 0 0 0 0 0 0 0 0 0 0 0 0 0 0 0 0 0 0 0 0 0 0 0 0 0 0 0 0 0 0 0 0 0 0 0 0 0 0 0 0 0 0 0 0 0 0 0 0 0 0 0 0 0 0 0 0 0 0 0 0 0 0 0 0 0 0 0 0 0 0 0 0 0 0 0 0 0 0 0 0 0 0 0 0 0 0 0 0 0 0 0 0 0 0 0 0 0 0 0 0 0 0 0 0 0 0 0 0 0 0 0 0 0 0 0 0 0 0 0 0 0 0 0 0 0 0 0 0 0 0 0 0 0 0 0 0 0 0 0 0 0 0 0 0 0 0 0 0 0 0 0 0 0 0 0 0 0 0 0 0 0 0 0 0 0 0 0 0 0 0 0 0 0 0 0 0 0 0 0 0 0 0 0 0 0 0 0 0 0 0 0 0 0 0 0 0 0 0 0 0 0 0 0 0 0 0 0 0 0 0 0 0 0 0 0 0 0 0 0 0 0 0 0 0 0 0 0 0 0 0 0 0 0 0 0 0 0 0 0 0 0 0 0 0 0 0 0 0 0 0 0 0 0 
0.02 0.02 0.02 0.02 0.02 0.02 0.02 0.02 0.02 0.02 0.02 0.02 0.02 0.02 0.02 0.02 0.02 0.02 0.02 0.02 0.02 0.02 0.02 0.02 0.02 0.02 0.02 0.02 0.02 0.02 0.02 0.02 0.02 0.0200001 0.0200001 0.0200001 0.0200001 0.0200001 0.0200001 0.0200001 0.0200001 0.0200002 0.0200002 0.0200002 0.0200002 0.0200003 0.0200003 0.0200004 0.0200004 0.0200005 0.0200005 0.0200006 0.0200006 0.0200007 0.0200008 0.0200009 0.020001 0.0200011 0.0200013 0.0200014 0.0200016 0.0200018 0.020002 0.0200022 0.0200025 0.0200028 0.0200031 0.0200034 0.0200038 0.0200041 0.0200046 0.020005 0.0200055 0.0200061 0.0200066 0.0200072 0.0200079 0.0200085 0.0200092 0.02001 0.0200107 0.0200115 0.0200122 0.020013 0.0200138 0.0200145 0.0200152 0.0200159 0.0200165 0.0200171 0.0200175 0.0200179 0.0200181 0.0200181 0.020018 0.0200176 0.020017 0.0200161 0.0200149 0.0200134 0.0200115 0.0200092 0.0200064 0.0200032 0.0199995 0.0199952 0.0199904 0.0199849 0.0199789 0.0199723 0.0199651 0.0199573 0.019949 0.0199401 0.0199308 0.0199212 0.0199112 0.0199012 0.0198911 0.0198811 0.0198715 0.0198624 0.019854 0.0198465 0.01984 0.0198349 0.0198311 0.0198289 0.0198285 0.0198298 0.0198329 0.0198378 0.0198446 0.019853 0.019863 0.0198743 0.0198865 0.019899 0.0199105 0.0199194 0.0199272 0.0199356 0.0199438 0.0199513 0.0199574 0.0199616 0.0199638 0.0199634 0.0199604 0.0199546 0.0199461 0.0199348 0.0199209 0.0199045 0.019886 0.0198657 0.0198439 0.0198211 0.0197975 0.0197737 0.0197499 0.0197266 0.019704 0.0196824 0.0196621 0.0196433 0.0196264 0.0196112 0.0195976 0.0195848 0.0195706 0.0195518 0.0195238 0.0194833 0.0194449 0.0194145 0.0193862 0.0193504 0.0193026 0.0192433 0.0191624 0.0190828 0.0190542 0.0193185 0.018899 0.0197599 0.0194455 0.0189216 0.0184773 0.0179666 0.0172971 0.0163833 0.0153875 0.0144235 0.0139413 0.0151068 0 0 0 0 0 0 0 0 0 0 0 0 0 0 0 0 0 0 0 0 0 0 0 0 0 0 0 0 0 0 0 0 0 0 0 0 0 0 0 0 0 0 0 0 0 0 0 0 0 0 0 0 0 0 0 0 0 0 0 0 0 0 0 0 0 0 0 0 0 0 0 0 0 0 0 0 0 0 0 0 0 0 0 0 0 0 0 0 0 0 0 0 0 0 0 0 0 0 0 0 0 0 0 0 0 0 0 0 0 0 0 0 0 0 0 0 0 0 0 0 0 0 0 0 0 0 0 0 0 0 0 0 0 0 0 0 0 0 0 0 0 0 0 0 0 0 0 0 0 0 0 0 0 0 0 0 0 0 0 0 0 0 0 0 0 0 0 0 0 0 0 0 0 0 0 0 0 0 0 0 0 0 0 0 0 0 0 0 0 0 0 0 0 0 0 0 0 0 0 0 0 0 0 0 0 0 0 0 0 0 0 0 0 0 0 0 0 0 0 0 0 0 0 0 0 0 0 0 0 0 0 0 0 0 0 0 0 0 0 0 0 0 0 0 0 0 0 0 0 0 0 0 0 0 0 0 0 0 0 0 0 0 0 0 0 0 0 0 0 0 0 0 0 0 0 0 0 0 0 0 0 0 0 0 0 0 0 0 0 0 0 0 0 0 0 0 0 0 0 0 0 0 0 0 0 0 0 0 0 0 0 0 0 0 0 0 0 0 0 0 0 0 0 0 0 0 0 0 0 0 0 0 0 0 0 0 0 0 0 0 0 0 0 0 0 0 0 0 0 0 0 0 0 0 0 0 0 0 0 0 0 0 0 0 0 0 0 0 0 0 0 0 0 0 0 0 0 0 0 0 0 0 0 0 0 0 0 0 0 0 0 0 0 0 0 0 0 0 0 0 0 0 0 0 0 0 0 0 0 0 0 0 0 0 0 0 0 0 0 0 0 0 0 0 0 
0.02 0.02 0.02 0.02 0.02 0.02 0.02 0.02 0.02 0.02 0.02 0.02 0.02 0.02 0.02 0.02 0.02 0.02 0.02 0.02 0.02 0.02 0.02 0.02 0.02 0.02 0.02 0.02 0.02 0.02 0.02 0.02 0.02 0.0200001 0.0200001 0.0200001 0.0200001 0.0200001 0.0200001 0.0200001 0.0200001 0.0200002 0.0200002 0.0200002 0.0200002 0.0200003 0.0200003 0.0200003 0.0200004 0.0200004 0.0200005 0.0200006 0.0200006 0.0200007 0.0200008 0.0200009 0.020001 0.0200011 0.0200012 0.0200014 0.0200015 0.0200017 0.0200019 0.0200021 0.0200024 0.0200026 0.0200029 0.0200033 0.0200036 0.020004 0.0200044 0.0200048 0.0200053 0.0200058 0.0200064 0.0200069 0.0200075 0.0200082 0.0200088 0.0200095 0.0200102 0.020011 0.0200117 0.0200124 0.0200131 0.0200138 0.0200145 0.0200151 0.0200157 0.0200162 0.0200165 0.0200168 0.0200169 0.0200169 0.0200167 0.0200163 0.0200156 0.0200146 0.0200134 0.0200118 0.0200098 0.0200074 0.0200046 0.0200013 0.0199975 0.0199931 0.0199882 0.0199828 0.0199767 0.01997 0.0199628 0.019955 0.0199466 0.0199377 0.0199284 0.0199188 0.0199089 0.0198988 0.0198888 0.0198789 0.0198694 0.0198603 0.019852 0.0198446 0.0198383 0.0198332 0.0198297 0.0198277 0.0198274 0.0198289 0.0198323 0.0198376 0.0198446 0.0198534 0.0198638 0.0198755 0.0198882 0.0199012 0.0199136 0.0199244 0.0199341 0.0199437 0.019953 0.0199615 0.0199686 0.0199741 0.0199774 0.0199783 0.0199766 0.0199722 0.019965 0.0199551 0.0199424 0.0199273 0.01991 0.0198907 0.0198698 0.0198476 0.0198245 0.0198008 0.0197768 0.0197528 0.0197291 0.0197058 0.0196833 0.0196615 0.0196406 0.0196204 0.0196005 0.0195797 0.0195568 0.0195298 0.0194984 0.0194635 0.0194313 0.0194011 0.0193688 0.0193288 0.0192786 0.0192235 0.0191627 0.0191134 0.0191532 0.0193033 0.0195712 0.0194488 0.0191042 0.0187932 0.0183305 0.0177787 0.0170926 0.0162568 0.0154045 0.0143782 0.0136432 0.0133317 0.012087 0.0105806 0.0090128 0.0073193 0.00569105 0.00409337 0.0033792 0 0 0 0 0 0 0 0 0 0 0 0 0 0 0 0 0 0 0 0 0 0 0 0 0 0 0 0 0 0 0 0 0 0 0 0 0 0 0 0 0 0 0 0 0 0 0 0 0 0 0 0 0 0 0 0 0 0 0 0 0 0 0 0 0 0 0 0 0 0 0 0 0 0 0 0 0 0 0 0 0 0 0 0 0 0 0 0 0 0 0 0 0 0 0 0 0 0 0 0 0 0 0 0 0 0 0 0 0 0 0 0 0 0 0 0 0 0 0 0 0 0 0 0 0 0 0 0 0 0 0 0 0 0 0 0 0 0 0 0 0 0 0 0 0 0 0 0 0 0 0 0 0 0 0 0 0 0 0 0 0 0 0 0 0 0 0 0 0 0 0 0 0 0 0 0 0 0 0 0 0 0 0 0 0 0 0 0 0 0 0 0 0 0 0 0 0 0 0 0 0 0 0 0 0 0 0 0 0 0 0 0 0 0 0 0 0 0 0 0 0 0 0 0 0 0 0 0 0 0 0 0 0 0 0 0 0 0 0 0 0 0 0 0 0 0 0 0 0 0 0 0 0 0 0 0 0 0 0 0 0 0 0 0 0 0 0 0 0 0 0 0 0 0 0 0 0 0 0 0 0 0 0 0 0 0 0 0 0 0 0 0 0 0 0 0 0 0 0 0 0 0 0 0 0 0 0 0 0 0 0 0 0 0 0 0 0 0 0 0 0 0 0 0 0 0 0 0 0 0 0 0 0 0 0 0 0 0 0 0 0 0 0 0 0 0 0 0 0 0 0 0 0 0 0 0 0 0 0 0 0 0 0 0 0 0 0 0 0 0 0 0 0 0 0 0 0 0 0 0 0 0 0 0 0 0 0 0 0 0 0 0 0 0 0 0 0 0 0 0 0 0 0 0 0 0 0 0 0 0 0 0 0 0 0 0 0 -8.13152e-20 
0.02 0.02 0.02 0.02 0.02 0.02 0.02 0.02 0.02 0.02 0.02 0.02 0.02 0.02 0.02 0.02 0.02 0.02 0.02 0.02 0.02 0.02 0.02 0.02 0.02 0.02 0.02 0.02 0.02 0.02 0.02 0.02 0.02 0.0200001 0.0200001 0.0200001 0.0200001 0.0200001 0.0200001 0.0200001 0.0200001 0.0200002 0.0200002 0.0200002 0.0200002 0.0200003 0.0200003 0.0200003 0.0200004 0.0200004 0.0200005 0.0200005 0.0200006 0.0200007 0.0200007 0.0200008 0.0200009 0.020001 0.0200012 0.0200013 0.0200015 0.0200016 0.0200018 0.020002 0.0200022 0.0200025 0.0200028 0.0200031 0.0200034 0.0200038 0.0200041 0.0200046 0.020005 0.0200055 0.020006 0.0200065 0.0200071 0.0200077 0.0200083 0.0200089 0.0200096 0.0200103 0.0200109 0.0200116 0.0200122 0.0200129 0.0200135 0.020014 0.0200145 0.0200149 0.0200152 0.0200153 0.0200154 0.0200153 0.0200149 0.0200144 0.0200136 0.0200125 0.0200112 0.0200095 0.0200074 0.0200049 0.0200019 0.0199985 0.0199946 0.0199902 0.0199852 0.0199797 0.0199735 0.0199668 0.0199595 0.0199516 0.0199432 0.0199343 0.019925 0.0199153 0.0199055 0.0198954 0.0198855 0.0198756 0.0198662 0.0198573 0.0198491 0.0198419 0.0198357 0.0198309 0.0198276 0.0198259 0.0198259 0.0198278 0.0198316 0.0198373 0.0198448 0.0198541 0.0198651 0.0198774 0.0198908 0.0199047 0.0199182 0.0199307 0.0199424 0.0199536 0.0199642 0.019974 0.0199826 0.0199894 0.0199942 0.0199967 0.0199967 0.0199939 0.0199883 0.01998 0.0199689 0.0199553 0.0199394 0.0199213 0.0199015 0.0198801 0.0198575 0.019834 0.0198097 0.019785 0.01976 0.0197349 0.0197097 0.0196845 0.0196592 0.0196337 0.0196075 0.0195799 0.0195506 0.0195193 0.0194863 0.0194535 0.0194213 0.0193881 0.0193509 0.0193067 0.0192559 0.0192082 0.0191747 0.0191536 0.0191996 0.0192913 0.0193714 0.0192567 0.0189904 0.0186515 0.0181908 0.017624 0.0169484 0.0161739 0.0153979 0.0145983 0.013608 0.012928 0.011747 0.0103606 0.00885943 0.00724944 0.00568674 0.00403404 0.0024749 0.000534991 -0.00163844 -0.00379789 -0.00617727 -0.00812837 0 0 0 0 0 0 0 0 0 0 0 0 0 0 0 0 0 0 0 0 0 0 0 0 0 0 0 0 0 0 0 0 0 0 0 0 0 0 0 0 0 0 0 0 0 0 0 0 0 0 0 0 0 0 0 0 0 0 0 0 0 0 0 0 0 0 0 0 0 0 0 0 0 0 0 0 0 0 0 0 0 0 0 0 0 0 0 0 0 0 0 0 0 0 0 0 0 0 0 0 0 0 0 0 0 0 0 0 0 0 0 0 0 0 0 0 0 0 0 0 0 0 0 0 0 0 0 0 0 0 0 0 0 0 0 0 0 0 0 0 0 0 0 0 0 0 0 0 0 0 0 0 0 0 0 0 0 0 0 0 0 0 0 0 0 0 0 0 0 0 0 0 0 0 0 0 0 0 0 0 0 0 0 0 0 0 0 0 0 0 0 0 0 0 0 0 0 0 0 0 0 0 0 0 0 0 0 0 0 0 0 0 0 0 0 0 0 0 0 0 0 0 0 0 0 0 0 0 0 0 0 0 0 0 0 0 0 0 0 0 0 0 0 0 0 0 0 0 0 0 0 0 0 0 0 0 0 0 0 0 0 0 0 0 0 0 0 0 0 0 0 0 0 0 0 0 0 0 0 0 0 0 0 0 0 0 0 0 0 0 0 0 0 0 0 0 0 0 0 0 0 0 0 0 0 0 0 0 0 0 0 0 0 0 0 0 0 0 0 0 0 0 0 0 0 0 0 0 0 0 0 0 0 0 0 0 0 0 0 0 0 0 0 0 0 0 0 0 0 0 0 0 0 0 0 0 0 0 0 0 0 0 0 0 0 0 0 0 0 0 0 0 0 0 0 0 0 0 0 0 0 0 0 0 0 0 0 0 0 0 0 0 0 0 0 0 0 0 0 0 0 0 0 0 0 0 0 0 0 0 0 -0.00405007 -1.0842e-19 
0.02 0.02 0.02 0.02 0.02 0.02 0.02 0.02 0.02 0.02 0.02 0.02 0.02 0.02 0.02 0.02 0.02 0.02 0.02 0.02 0.02 0.02 0.02 0.02 0.02 0.02 0.02 0.02 0.02 0.02 0.02 0.02 0.02 0.0200001 0.0200001 0.0200001 0.0200001 0.0200001 0.0200001 0.0200001 0.0200001 0.0200001 0.0200002 0.0200002 0.0200002 0.0200002 0.0200003 0.0200003 0.0200003 0.0200004 0.0200004 0.0200005 0.0200005 0.0200006 0.0200007 0.0200008 0.0200009 0.020001 0.0200011 0.0200012 0.0200013 0.0200015 0.0200017 0.0200019 0.0200021 0.0200023 0.0200026 0.0200028 0.0200031 0.0200035 0.0200038 0.0200042 0.0200046 0.0200051 0.0200055 0.020006 0.0200065 0.0200071 0.0200076 0.0200082 0.0200088 0.0200094 0.02001 0.0200105 0.0200111 0.0200116 0.0200121 0.0200126 0.0200129 0.0200132 0.0200134 0.0200135 0.0200134 0.0200131 0.0200127 0.020012 0.0200111 0.0200098 0.0200083 0.0200065 0.0200042 0.0200016 0.0199985 0.019995 0.019991 0.0199864 0.0199813 0.0199756 0.0199694 0.0199626 0.0199552 0.0199472 0.0199388 0.0199299 0.0199205 0.0199109 0.019901 0.0198911 0.0198812 0.0198715 0.0198622 0.0198534 0.0198454 0.0198384 0.0198325 0.019828 0.019825 0.0198237 0.0198241 0.0198265 0.0198308 0.019837 0.0198452 0.0198552 0.0198668 0.01988 0.0198943 0.0199092 0.0199241 0.0199385 0.0199522 0.0199653 0.0199777 0.0199892 0.0199994 0.020008 0.0200146 0.0200189 0.0200207 0.0200198 0.0200161 0.0200096 0.0200003 0.0199884 0.0199739 0.0199572 0.0199384 0.0199179 0.0198957 0.0198723 0.0198476 0.019822 0.0197956 0.0197684 0.0197404 0.0197117 0.0196823 0.0196519 0.0196206 0.0195882 0.0195546 0.0195204 0.0194858 0.019451 0.019415 0.0193763 0.0193334 0.0192858 0.0192365 0.0191964 0.0191813 0.0191914 0.0192121 0.0192582 0.0192259 0.0190955 0.0188459 0.0184903 0.0180342 0.0174735 0.0168211 0.0160993 0.0153585 0.0146135 0.0137727 0.0127327 0.0115182 0.0101689 0.00872532 0.0071694 0.00561966 0.00401586 0.00223506 0.000318022 -0.00169591 -0.00377061 -0.00601103 -0.00833209 -0.0107615 -0.0132122 -0.0160122 -0.0199108 0 0 0 0 0 0 0 0 0 0 0 0 0 0 0 0 0 0 0 0 0 0 0 0 0 0 0 0 0 0 0 0 0 0 0 0 0 0 0 0 0 0 0 0 0 0 0 0 0 0 0 0 0 0 0 0 0 0 0 0 0 0 0 0 0 0 0 0 0 0 0 0 0 0 0 0 0 0 0 0 0 0 0 0 0 0 0 0 0 0 0 0 0 0 0 0 0 0 0 0 0 0 0 0 0 0 0 0 0 0 0 0 0 0 0 0 0 0 0 0 0 0 0 0 0 0 0 0 0 0 0 0 0 0 0 0 0 0 0 0 0 0 0 0 0 0 0 0 0 0 0 0 0 0 0 0 0 0 0 0 0 0 0 0 0 0 0 0 0 0 0 0 0 0 0 0 0 0 0 0 0 0 0 0 0 0 0 0 0 0 0 0 0 0 0 0 0 0 0 0 0 0 0 0 0 0 0 0 0 0 0 0 0 0 0 0 0 0 0 0 0 0 0 0 0 0 0 0 0 0 0 0 0 0 0 0 0 0 0 0 0 0 0 0 0 0 0 0 0 0 0 0 0 0 0 0 0 0 0 0 0 0 0 0 0 0 0 0 0 0 0 0 0 0 0 0 0 0 0 0 0 0 0 0 0 0 0 0 0 0 0 0 0 0 0 0 0 0 0 0 0 0 0 0 0 0 0 0 0 0 0 0 0 0 0 0 0 0 0 0 0 0 0 0 0 0 0 0 0 0 0 0 0 0 0 0 0 0 0 0 0 0 0 0 0 0 0 0 0 0 0 0 0 0 0 0 0 0 0 0 0 0 0 0 0 0 0 0 0 0 0 0 0 0 0 0 0 0 0 0 0 0 0 0 0 0 0 0 0 0 0 0 0 0 0 0 0 0 0 0 0 0 0 0 0 0 -0.0127634 -0.00664793 -4.33681e-19 
0.02 0.02 0.02 0.02 0.02 0.02 0.02 0.02 0.02 0.02 0.02 0.02 0.02 0.02 0.02 0.02 0.02 0.02 0.02 0.02 0.02 0.02 0.02 0.02 0.02 0.02 0.02 0.02 0.02 0.02 0.02 0.02 0.02 0.02 0.0200001 0.0200001 0.0200001 0.0200001 0.0200001 0.0200001 0.0200001 0.0200001 0.0200002 0.0200002 0.0200002 0.0200002 0.0200003 0.0200003 0.0200003 0.0200004 0.0200004 0.0200004 0.0200005 0.0200006 0.0200006 0.0200007 0.0200008 0.0200009 0.020001 0.0200011 0.0200012 0.0200014 0.0200015 0.0200017 0.0200019 0.0200021 0.0200023 0.0200026 0.0200028 0.0200031 0.0200034 0.0200038 0.0200041 0.0200045 0.0200049 0.0200054 0.0200058 0.0200063 0.0200068 0.0200073 0.0200078 0.0200083 0.0200088 0.0200092 0.0200097 0.0200101 0.0200105 0.0200108 0.0200111 0.0200112 0.0200112 0.0200111 0.0200109 0.0200105 0.0200099 0.020009 0.0200079 0.0200066 0.0200049 0.0200028 0.0200004 0.0199976 0.0199944 0.0199907 0.0199865 0.0199818 0.0199765 0.0199707 0.0199643 0.0199574 0.0199499 0.0199419 0.0199334 0.0199245 0.0199151 0.0199055 0.0198957 0.0198858 0.019876 0.0198664 0.0198573 0.0198487 0.019841 0.0198342 0.0198287 0.0198245 0.0198219 0.019821 0.019822 0.0198249 0.0198298 0.0198368 0.0198457 0.0198564 0.019869 0.0198831 0.0198985 0.0199147 0.0199312 0.0199475 0.0199633 0.0199785 0.019993 0.0200065 0.0200187 0.0200293 0.020038 0.0200444 0.0200483 0.0200494 0.0200478 0.0200433 0.0200359 0.0200257 0.0200129 0.0199975 0.0199799 0.0199601 0.0199384 0.019915 0.01989 0.0198636 0.0198358 0.0198067 0.0197763 0.0197448 0.019712 0.019678 0.019643 0.019607 0.0195703 0.0195328 0.0194945 0.0194549 0.0194128 0.0193672 0.0193184 0.0192683 0.0192212 0.0191864 0.0191754 0.0191889 0.0191987 0.019172 0.0191028 0.0189401 0.0186787 0.0183194 0.0178666 0.0173212 0.0166958 0.0160066 0.015274 0.0144848 0.013599 0.0125468 0.0113429 0.0100105 0.00858585 0.00706781 0.00549507 0.00383639 0.0020497 0.000159392 -0.00183336 -0.00392422 -0.00610558 -0.00836287 -0.0106969 -0.0130827 -0.0149924 -0.0185267 -0.0211871 -0.0235915 -0.0266224 -0.0322078 0 0 0 0 0 0 0 0 0 0 0 0 0 0 0 0 0 0 0 0 0 0 0 0 0 0 0 0 0 0 0 0 0 0 0 0 0 0 0 0 0 0 0 0 0 0 0 0 0 0 0 0 0 0 0 0 0 0 0 0 0 0 0 0 0 0 0 0 0 0 0 0 0 0 0 0 0 0 0 0 0 0 0 0 0 0 0 0 0 0 0 0 0 0 0 0 0 0 0 0 0 0 0 0 0 0 0 0 0 0 0 0 0 0 0 0 0 0 0 0 0 0 0 0 0 0 0 0 0 0 0 0 0 0 0 0 0 0 0 0 0 0 0 0 0 0 0 0 0 0 0 0 0 0 0 0 0 0 0 0 0 0 0 0 0 0 0 0 0 0 0 0 0 0 0 0 0 0 0 0 0 0 0 0 0 0 0 0 0 0 0 0 0 0 0 0 0 0 0 0 0 0 0 0 0 0 0 0 0 0 0 0 0 0 0 0 0 0 0 0 0 0 0 0 0 0 0 0 0 0 0 0 0 0 0 0 0 0 0 0 0 0 0 0 0 0 0 0 0 0 0 0 0 0 0 0 0 0 0 0 0 0 0 0 0 0 0 0 0 0 0 0 0 0 0 0 0 0 0 0 0 0 0 0 0 0 0 0 0 0 0 0 0 0 0 0 0 0 0 0 0 0 0 0 0 0 0 0 0 0 0 0 0 0 0 0 0 0 0 0 0 0 0 0 0 0 0 0 0 0 0 0 0 0 0 0 0 0 0 0 0 0 0 0 0 0 0 0 0 0 0 0 0 0 0 0 0 0 0 0 0 0 0 0 0 0 0 0 0 0 0 0 0 0 0 0 0 0 0 0 0 0 0 0 0 0 0 0 0 0 0 0 0 0 0 0 0 0 0 0 -0.0275729 -0.0239953 -0.0170448 -0.00928247 2.1684e-19 
0.02 0.02 0.02 0.02 0.02 0.02 0.02 0.02 0.02 0.02 0.02 0.02 0.02 0.02 0.02 0.02 0.02 0.02 0.02 0.02 0.02 0.02 0.02 0.02 0.02 0.02 0.02 0.02 0.02 0.02 0.02 0.02 0.02 0.02 0.0200001 0.0200001 0.0200001 0.0200001 0.0200001 0.0200001 0.0200001 0.0200001 0.0200001 0.0200002 0.0200002 0.0200002 0.0200002 0.0200003 0.0200003 0.0200003 0.0200004 0.0200004 0.0200004 0.0200005 0.0200006 0.0200006 0.0200007 0.0200008 0.0200009 0.020001 0.0200011 0.0200012 0.0200013 0.0200015 0.0200016 0.0200018 0.020002 0.0200022 0.0200025 0.0200027 0.020003 0.0200033 0.0200036 0.0200039 0.0200043 0.0200046 0.020005 0.0200054 0.0200058 0.0200062 0.0200066 0.020007 0.0200074 0.0200077 0.0200081 0.0200084 0.0200086 0.0200088 0.0200088 0.0200088 0.0200087 0.0200084 0.020008 0.0200074 0.0200066 0.0200056 0.0200043 0.0200027 0.0200008 0.0199986 0.019996 0.0199929 0.0199895 0.0199856 0.0199812 0.0199763 0.0199709 0.0199649 0.0199584 0.0199514 0.0199438 0.0199357 0.0199271 0.0199181 0.0199088 0.0198992 0.0198894 0.0198796 0.0198699 0.0198605 0.0198515 0.0198432 0.0198358 0.0198293 0.0198242 0.0198204 0.0198183 0.019818 0.0198195 0.0198231 0.0198287 0.0198364 0.0198461 0.0198579 0.0198714 0.0198866 0.0199032 0.0199208 0.019939 0.0199573 0.0199753 0.0199929 0.0200097 0.0200255 0.02004 0.0200528 0.0200638 0.0200724 0.0200786 0.0200821 0.0200826 0.0200803 0.0200749 0.0200666 0.0200555 0.0200416 0.0200252 0.0200065 0.0199854 0.0199623 0.0199373 0.0199104 0.0198818 0.0198515 0.0198195 0.0197859 0.0197508 0.0197143 0.0196764 0.0196373 0.0195969 0.019555 0.0195113 0.019465 0.0194154 0.0193626 0.019308 0.0192552 0.0192092 0.0191756 0.0191594 0.0191563 0.0191479 0.0190975 0.0189796 0.0187825 0.0185045 0.0181418 0.0176923 0.0171608 0.0165574 0.0158896 0.0151528 0.0143424 0.0134132 0.0123503 0.0111545 0.00984042 0.00843153 0.0069325 0.00533888 0.00365441 0.00185814 -3.56226e-05 -0.00201522 -0.0041233 -0.00627201 -0.00851698 -0.0108436 -0.0132363 -0.0158119 -0.0183452 -0.0208328 -0.0228994 -0.0258358 -0.0295048 -0.0321789 -0.0341791 -0.036328 -0.0416809 -0.0419611 0 0 0 0 0 0 0 0 0 0 0 0 0 0 0 0 0 0 0 0 0 0 0 0 0 0 0 0 0 0 0 0 0 0 0 0 0 0 0 0 0 0 0 0 0 0 0 0 0 0 0 0 0 0 0 0 0 0 0 0 0 0 0 0 0 0 0 0 0 0 0 0 0 0 0 0 0 0 0 0 0 0 0 0 0 0 0 0 0 0 0 0 0 0 0 0 0 0 0 0 0 0 0 0 0 0 0 0 0 0 0 0 0 0 0 0 0 0 0 0 0 0 0 0 0 0 0 0 0 0 0 0 0 0 0 0 0 0 0 0 0 0 0 0 0 0 0 0 0 0 0 0 0 0 0 0 0 0 0 0 0 0 0 0 0 0 0 0 0 0 0 0 0 0 0 0 0 0 0 0 0 0 0 0 0 0 0 0 0 0 0 0 0 0 0 0 0 0 0 0 0 0 0 0 0 0 0 0 0 0 0 0 0 0 0 0 0 0 0 0 0 0 0 0 0 0 0 0 0 0 0 0 0 0 0 0 0 0 0 0 0 0 0 0 0 0 0 0 0 0 0 0 0 0 0 0 0 0 0 0 0 0 0 0 0 0 0 0 0 0 0 0 0 0 0 0 0 0 0 0 0 0 0 0 0 0 0 0 0 0 0 0 0 0 0 0 0 0 0 0 0 0 0 0 0 0 0 0 0 0 0 0 0 0 0 0 0 0 0 0 0 0 0 0 0 0 0 0 0 0 0 0 0 0 0 0 0 0 0 0 0 0 0 0 0 0 0 0 0 0 0 0 0 0 0 0 0 0 0 0 0 0 0 0 0 0 0 0 0 0 0 0 0 0 0 0 0 0 0 0 -0.0409761 -0.0429336 -0.0435678 -0.0438217 -0.0439043 -0.043901 -0.0438348 -0.0437152 -0.043539 -0.0432897 -0.0429259 -0.042344 -0.0412015 -0.0388568 -0.0358628 -0.0314646 -0.0258549 -0.018973 -0.0107367 4.33681e-19 
0.02 0.02 0.02 0.02 0.02 0.02 0.02 0.02 0.02 0.02 0.02 0.02 0.02 0.02 0.02 0.02 0.02 0.02 0.02 0.02 0.02 0.02 0.02 0.02 0.02 0.02 0.02 0.02 0.02 0.02 0.02 0.02 0.02 0.02 0.02 0.0200001 0.0200001 0.0200001 0.0200001 0.0200001 0.0200001 0.0200001 0.0200001 0.0200001 0.0200002 0.0200002 0.0200002 0.0200002 0.0200002 0.0200003 0.0200003 0.0200003 0.0200004 0.0200004 0.0200005 0.0200005 0.0200006 0.0200006 0.0200007 0.0200008 0.0200009 0.020001 0.0200011 0.0200012 0.0200014 0.0200015 0.0200017 0.0200018 0.020002 0.0200022 0.0200025 0.0200027 0.0200029 0.0200032 0.0200035 0.0200038 0.0200041 0.0200044 0.0200047 0.020005 0.0200052 0.0200055 0.0200058 0.020006 0.0200062 0.0200063 0.0200064 0.0200064 0.0200063 0.0200061 0.0200058 0.0200053 0.0200047 0.0200039 0.0200029 0.0200016 0.0200001 0.0199983 0.0199962 0.0199937 0.0199909 0.0199876 0.019984 0.0199798 0.0199752 0.0199701 0.0199645 0.0199584 0.0199517 0.0199445 0.0199368 0.0199286 0.01992 0.0199109 0.0199016 0.019892 0.0198823 0.0198726 0.019863 0.0198538 0.019845 0.019837 0.0198298 0.0198238 0.019819 0.0198157 0.0198141 0.0198144 0.0198166 0.0198209 0.0198273 0.0198358 0.0198465 0.0198593 0.019874 0.0198904 0.0199083 0.0199274 0.0199474 0.0199676 0.0199879 0.0200078 0.0200271 0.0200454 0.0200624 0.0200778 0.0200912 0.0201024 0.020111 0.0201169 0.0201199 0.0201199 0.0201168 0.0201106 0.0201014 0.0200894 0.0200746 0.0200571 0.0200372 0.0200149 0.0199904 0.0199638 0.019935 0.0199043 0.0198715 0.0198367 0.0198 0.0197614 0.0197208 0.0196781 0.0196332 0.0195858 0.0195354 0.0194815 0.0194242 0.0193642 0.0193038 0.019247 0.0191987 0.019161 0.0191317 0.0191026 0.0190557 0.0189713 0.0188283 0.018615 0.0183256 0.0179576 0.0175109 0.0169899 0.0164003 0.0157418 0.0150036 0.0141645 0.0132182 0.0121487 0.0109594 0.00965908 0.00825986 0.00676469 0.00516833 0.00346498 0.00165553 -0.00024838 -0.00224224 -0.00431915 -0.0064999 -0.00872079 -0.0110469 -0.0134505 -0.0159556 -0.0184448 -0.0209521 -0.023402 -0.0257298 -0.0289976 -0.0314242 -0.0335813 -0.0360936 -0.0393606 -0.0421955 -0.0443412 -0.0462569 -0.0472281 -0.048377 -0.0505181 -0.0600447 0 0 0 0 0 0 0 0 0 0 0 0 0 0 0 0 0 0 0 0 0 0 0 0 0 0 0 0 0 0 0 0 0 0 0 0 0 0 0 0 0 0 0 0 0 0 0 0 0 0 0 0 0 0 0 0 0 0 0 0 0 0 0 0 0 0 0 0 0 0 0 0 0 0 0 0 0 0 0 0 0 0 0 0 0 0 0 0 0 0 0 0 0 0 0 0 0 0 0 0 0 0 0 0 0 0 0 0 0 0 0 0 0 0 0 0 0 0 0 0 0 0 0 0 0 0 0 0 0 0 0 0 0 0 0 0 0 0 0 0 0 0 0 0 0 0 0 0 0 0 0 0 0 0 0 0 0 0 0 0 0 0 0 0 0 0 0 0 0 0 0 0 0 0 0 0 0 0 0 0 0 0 0 0 0 0 0 0 0 0 0 0 0 0 0 0 -0.0446439 -0.049168 -0.0513007 -0.051879 -0.0519673 -0.0518548 -0.0516678 -0.0514653 -0.0512744 -0.0511072 -0.050969 -0.0508617 -0.0507861 -0.0507419 -0.0507285 -0.0507449 -0.0507899 -0.0508618 -0.0509584 -0.0510775 -0.0512162 -0.0513716 -0.0515407 -0.0517207 -0.0519092 -0.052104 -0.0523036 -0.0525066 -0.0527119 -0.0529183 -0.0531243 -0.0533282 -0.0535282 -0.0537223 -0.0539086 -0.0540855 -0.0542514 -0.054405 -0.0545454 -0.0546712 -0.0547813 -0.0548746 -0.0549501 -0.0550069 -0.0550447 -0.0550635 -0.0550641 -0.0550478 -0.0550167 -0.0549733 -0.0549204 -0.054861 -0.0547983 -0.0547348 -0.0546733 -0.0546159 -0.0545643 -0.0545202 -0.0544847 -0.0544587 -0.0544428 -0.0544374 -0.0544425 -0.0544584 -0.0544851 -0.0545232 -0.0545733 -0.054637 -0.0547158 -0.0548118 -0.054927 -0.0550634 -0.0552222 -0.0554043 -0.05561 -0.0581015 0 0 0 0 0 0 0 0 0 0 0 0 0 0 0 0 0 0 0 0 0 0 0 0 0 0 0 0 0 0 0 0 0 0 0 0 0 0 0 0 0 0 0 0 0 0 0 0 0 0 0 0 0 0 0 0 0 0 -0.0452468 -0.04946 -0.0513636 -0.0520529 -0.0523117 -0.0523458 -0.0522689 -0.0521254 -0.051944 -0.0517392 -0.0515196 -0.051288 -0.0510416 -0.0507663 -0.0504141 -0.0499552 -0.049425 -0.0490548 -0.0487572 -0.0484949 -0.0482544 -0.0480289 -0.047815 -0.0476105 -0.0474137 -0.0472236 -0.0470395 -0.0468611 -0.0466883 -0.0465215 -0.0463614 -0.0462089 -0.0460648 -0.0459303 -0.0458068 -0.0456969 -0.0456053 -0.0455369 -0.0454878 -0.0454212 -0.045234 -0.0447572 -0.0438742 -0.0429102 -0.0427174 -0.0431795 -0.0435962 -0.04382 -0.0439002 -0.0439025 -0.0438427 -0.0437304 -0.043562 -0.0433181 -0.0429461 -0.0423003 -0.0411038 -0.0390242 -0.0360525 -0.031908 -0.0266067 -0.0200302 -0.0116106 -6.50521e-19 