# vtk DataFile Version 2.0
iteration 2187
ASCII

DATASET STRUCTURED_POINTS
DIMENSIONS 621 64 1
ORIGIN 0 0 0
SPACING 0.00161031 0.00161031 0.00161031

POINT_DATA 39744
SCALARS P float 1
LOOKUP_TABLE default
0 0 0 0 0 0 0 0 0 0 0 0 0 0 0 0 0 0 0 0 0 0 0 0 0 0 0 0 0 0 0 0 0 0 0 0 0 0 0 0 0 0 0 0 0 0 0 0 0 0 0 0 0 0 0 0 0 0 0 0 0 0 0 0 0 0 0 0 0 0 0 0 0 0 0 0 0 0 0 0 0 0 0 0 0 0 0 0 0 0 0 0 0 0 0 0 0 0 0 0 0 0 0 0 0 0 0 0 0 0 0 0 0 0 0 0 0 0 0 0 0 0 0 0 0 0 0 0 0 0 0 0 0 0 0 0 0 0 0 0 0 0 0 0 0 0 0 0 0 0 0 0 0 0 0 0 0 0 0 0 0 0 0 0 0 0 0 0 0 0 0 0 0 0 0 0 0 0 0 0 0 0 0 0 0 0 0 0 0 0 0 0 0 0 0 0 0 0 0 0 0 0 0 0 0 0 0 0 0 0 0 0 0 0 0 0 0 0 0 0 0 0 0 0 0 0 0 0 0 0 0 0 0 0 0 0 0 0 0 0 0 0 0 0 0 0 0 0 0 0 0 0 0 0 0 0 0 0 0 0 0 0 0 0 0 0 0 0 0 0 0 0 0 0 0 0 0 0 0 0 0 0 0 0 0 0 0 0 0 0 0 0 0 0 0 0 0 0 0 0 0 0 0 0 0 0 0 0 0 0 0 0 0 0 0 0 0 0 0 0 0 0 0 0 0 0 0 0 0 0 0 0 0 0 0 0 0 0 0 0 0 0 0 0 0 0 0 0 0 0 0 0 0 0 0 0 0 0 0 0 0 0 0 0 0 0 0 0 0 0 0 0 0 0 0 0 0 0 0 0 0 0 0 0 0 0 0 0 0 0 0 0 0 0 0 0 0 0 0 0 0 0 0 0 0 0 0 0 0 0 0 0 0 0 0 0 0 0 0 0 0 0 0 0 0 0 0 0 0 0 0 0 0 0 0 0 0 0 0 0 0 0 0 0 0 0 0 0 0 0 0 0 0 0 0 0 0 0 0 0 0 0 0 0 0 0 0 0 0 0 0 0 0 0 0 0 0 0 0 0 0 0 0 0 0 0 0 0 0 0 0 0 0 0 0 0 0 0 0 0 0 0 0 0 0 0 0 0 0 0 0 0 0 0 0 0 0 0 0 0 0 0 0 0 0 0 0 0 0 0 0 0 0 0 0 0 0 0 0 0 0 0 0 0 0 0 0 0 0 0 0 0 0 0 0 0 0 0 0 0 0 0 0 0 0 0 0 0 0 0 0 0 0 0 0 0 0 0 0 0 0 0 0 0 0 0 0 0 0 0 0 0 0 0 0 0 0 0 0 0 0 0 0 0 0 0 0 0 0 0 0 0 0 0 0 0 0 0 0 0 0 
0.0208613 0.0208384 0.020787 0.0207375 0.0206887 0.0206405 0.0205929 0.0205461 0.0205003 0.0204556 0.0204123 0.0203706 0.0203306 0.0202926 0.0202567 0.0202231 0.0201919 0.0201633 0.0201373 0.0201139 0.0200932 0.020075 0.0200594 0.0200462 0.0200352 0.0200263 0.0200191 0.0200136 0.0200093 0.0200062 0.020004 0.0200025 0.0200015 0.0200008 0.0200004 0.0200002 0.0200001 0.02 0.02 0.02 0.02 0.02 0.02 0.02 0.02 0.02 0.02 0.02 0.02 0.02 0.02 0.02 0.02 0.02 0.02 0.02 0.02 0.02 0.02 0.02 0.02 0.02 0.02 0.02 0.02 0.02 0.02 0.02 0.02 0.02 0.02 0.02 0.02 0.02 0.02 0.02 0.02 0.02 0.02 0.02 0.02 0.02 0.02 0.02 0.02 0.02 0.02 0.02 0.02 0.02 0.02 0.02 0.02 0.02 0.02 0.02 0.02 0.02 0.02 0.02 0.02 0.02 0.02 0.02 0.02 0.02 0.02 0.02 0.02 0.02 0.02 0.02 0.02 0.02 0.02 0.02 0.02 0.02 0.02 0.02 0.02 0.02 0.02 0.02 0.02 0.02 0.02 0.02 0.02 0.02 0.02 0.02 0.02 0.02 0.02 0.02 0.02 0.02 0.02 0.02 0.02 0.02 0.02 0.02 0.02 0.02 0.02 0.02 0.02 0.02 0.02 0.02 0.02 0.02 0.02 0.02 0.02 0.02 0.02 0.02 0.02 0.02 0.02 0.02 0.02 0.02 0.02 0.02 0.02 0.02 0.02 0.02 0.02 0.02 0.02 0.02 0.02 0.02 0.02 0.02 0.02 0.02 0.02 0.02 0.02 0.02 0.02 0.02 0.02 0.02 0.02 0.02 0.02 0.02 0.02 0.02 0.02 0.02 0.02 0.02 0.02 0.02 0.0199999 0.0199999 0.0199999 0.0199999 0.0199999 0.0199999 0.0199999 0.0199999 0.0199998 0.0199998 0.0199998 0.0199998 0.0199997 0.0199997 0.0199997 0.0199996 0.0199996 0.0199995 0.0199995 0.0199994 0.0199994 0.0199993 0.0199992 0.0199992 0.0199991 0.019999 0.0199989 0.0199988 0.0199987 0.0199986 0.0199984 0.0199983 0.0199981 0.019998 0.0199978 0.0199976 0.0199974 0.0199972 0.019997 0.0199968 0.0199965 0.0199963 0.019996 0.0199957 0.0199954 0.0199951 0.0199948 0.0199944 0.019994 0.0199937 0.0199933 0.0199928 0.0199924 0.019992 0.0199915 0.019991 0.0199905 0.01999 0.0199895 0.019989 0.0199884 0.0199879 0.0199873 0.0199867 0.0199861 0.0199856 0.019985 0.0199844 0.0199837 0.0199831 0.0199825 0.0199819 0.0199813 0.0199807 0.0199802 0.0199796 0.019979 0.0199785 0.019978 0.0199775 0.019977 0.0199766 0.0199761 0.0199758 0.0199754 0.0199751 0.0199749 0.0199746 0.0199745 0.0199744 0.0199743 0.0199743 0.0199744 0.0199745 0.0199746 0.0199749 0.0199752 0.0199756 0.0199762 0.0199768 0.0199775 0.0199783 0.0199792 0.0199803 0.0199814 0.0199827 0.0199841 0.0199856 0.0199872 0.019989 0.0199909 0.019993 0.0199952 0.0199975 0.02 0.0200027 0.0200055 0.0200084 0.0200116 0.0200149 0.0200183 0.0200219 0.0200257 0.0200297 0.0200339 0.0200382 0.0200427 0.0200474 0.0200523 0.0200573 0.0200626 0.020068 0.0200736 0.0200794 0.0200853 0.0200915 0.0200978 0.0201042 0.0201109 0.0201177 0.0201247 0.0201319 0.0201392 0.0201467 0.0201543 0.0201621 0.02017 0.0201781 0.0201862 0.0201946 0.020203 0.0202115 0.0202202 0.0202289 0.0202377 0.0202466 0.0202556 0.0202647 0.0202738 0.0202829 0.0202921 0.0203013 0.0203105 0.0203197 0.0203289 0.0203381 0.0203472 0.0203563 0.0203654 0.0203744 0.0203832 0.020392 0.0204007 0.0204092 0.0204176 0.0204261 0.0204346 0.0204426 0.0204509 0.020459 0.0204671 0.020475 0.0204827 0.0204903 0.0204977 0.0205049 0.0205119 0.0205187 0.0205253 0.0205317 0.0205378 0.0205437 0.0205494 0.0205548 0.02056 0.0205649 0.0205695 0.0205738 0.0205779 0.0205816 0.0205851 0.0205882 0.0205911 0.0205936 0.0205958 0.0205977 0.0205993 0.0206005 0.0206015 0.020602 0.0206023 0.0206023 0.0206019 0.0206012 0.0206001 0.0205988 0.0205971 0.0205951 0.0205928 0.0205903 0.0205874 0.0205842 0.0205808 0.0205771 0.0205731 0.0205689 0.0205644 0.0205597 0.0205548 0.0205497 0.0205443 0.0205388 0.0205331 0.0205273 0.0205212 0.0205151 0.0205089 0.0205025 0.020496 0.0204895 0.0204829 0.0204762 0.0204695 0.0204627 0.020456 0.0204491 0.0204423 0.0204354 0.0204285 0.0204215 0.0204144 0.0204073 0.0204 0.0203926 0.020385 0.0203771 0.020369 0.0203606 0.0203517 0.0203425 0.0203327 0.0203224 0.0203114 0.0202997 0.0202873 0.020274 0.0202598 0.0202447 0.0202286 0.0202114 0.0201931 0.0201738 0.0201534 0.0201319 0.0201094 0.0200859 0.0200615 0.0200363 0.0200104 0.0199839 0.0199569 0.0199296 0.0199022 0.0198747 0.0198474 0.0198204 0.0197937 0.0197676 0.0197421 0.0197173 0.0196933 0.0196701 0.0196476 0.0196259 0.0196048 0.019584 0.0195634 0.0195426 0.0195209 0.0194977 0.0194723 0.0194438 0.0194109 0.0193727 0.0193275 0.019274 0.0192102 0.0191339 0.0190426 0.0189331 0.0188018 0.0186448 0.0184574 0.0182342 0.0179697 0.0176559 0.0172909 0.0168636 0.0163962 0.0159359 0.0155672 0.0158719 0.0179575 0.0152842 0 0 0 0 0 0 0 0 0 0 0 0 0 0 0 0 0 0 0 0 0 0 0 0 0 0 0 0 0 0 0 0 0 0 0 0 0 0 0 0 0 0 0 0 0 0 0 0 0 0 0 0 0 0 0 0 0 0 0 0 0 0 0 0 0 0 0 0 0 0 0 0 0 0 0 0 0 0 0 0 0 0 0 0 0 0 0 0 0 0 0 0 0 0 0 
0.0208613 0.0208246 0.0207782 0.0207303 0.0206821 0.0206342 0.0205868 0.0205401 0.0204945 0.02045 0.0204069 0.0203654 0.0203257 0.020288 0.0202524 0.0202192 0.0201884 0.0201601 0.0201344 0.0201114 0.0200911 0.0200733 0.020058 0.0200451 0.0200344 0.0200256 0.0200186 0.0200132 0.0200091 0.0200061 0.0200039 0.0200024 0.0200014 0.0200008 0.0200004 0.0200002 0.0200001 0.02 0.02 0.02 0.02 0.02 0.02 0.02 0.02 0.02 0.02 0.02 0.02 0.02 0.02 0.02 0.02 0.02 0.02 0.02 0.02 0.02 0.02 0.02 0.02 0.02 0.02 0.02 0.02 0.02 0.02 0.02 0.02 0.02 0.02 0.02 0.02 0.02 0.02 0.02 0.02 0.02 0.02 0.02 0.02 0.02 0.02 0.02 0.02 0.02 0.02 0.02 0.02 0.02 0.02 0.02 0.02 0.02 0.02 0.02 0.02 0.02 0.02 0.02 0.02 0.02 0.02 0.02 0.02 0.02 0.02 0.02 0.02 0.02 0.02 0.02 0.02 0.02 0.02 0.02 0.02 0.02 0.02 0.02 0.02 0.02 0.02 0.02 0.02 0.02 0.02 0.02 0.02 0.02 0.02 0.02 0.02 0.02 0.02 0.02 0.02 0.02 0.02 0.02 0.02 0.02 0.02 0.02 0.02 0.02 0.02 0.02 0.02 0.02 0.02 0.02 0.02 0.02 0.02 0.02 0.02 0.02 0.02 0.02 0.02 0.02 0.02 0.02 0.02 0.02 0.02 0.02 0.02 0.02 0.02 0.02 0.02 0.02 0.02 0.02 0.02 0.02 0.02 0.02 0.02 0.02 0.02 0.02 0.02 0.02 0.02 0.02 0.02 0.02 0.02 0.02 0.02 0.02 0.02 0.02 0.02 0.02 0.02 0.02 0.02 0.02 0.0199999 0.0199999 0.0199999 0.0199999 0.0199999 0.0199999 0.0199999 0.0199999 0.0199998 0.0199998 0.0199998 0.0199998 0.0199997 0.0199997 0.0199997 0.0199996 0.0199996 0.0199995 0.0199995 0.0199994 0.0199994 0.0199993 0.0199992 0.0199992 0.0199991 0.019999 0.0199989 0.0199988 0.0199987 0.0199986 0.0199984 0.0199983 0.0199981 0.019998 0.0199978 0.0199976 0.0199974 0.0199972 0.019997 0.0199968 0.0199965 0.0199963 0.019996 0.0199957 0.0199954 0.0199951 0.0199948 0.0199944 0.0199941 0.0199937 0.0199933 0.0199929 0.0199924 0.019992 0.0199915 0.0199911 0.0199906 0.0199901 0.0199895 0.019989 0.0199885 0.0199879 0.0199873 0.0199868 0.0199862 0.0199856 0.019985 0.0199844 0.0199838 0.0199832 0.0199826 0.019982 0.0199814 0.0199808 0.0199802 0.0199796 0.0199791 0.0199785 0.019978 0.0199775 0.019977 0.0199766 0.0199762 0.0199758 0.0199754 0.0199751 0.0199749 0.0199747 0.0199745 0.0199744 0.0199743 0.0199743 0.0199744 0.0199745 0.0199747 0.0199749 0.0199752 0.0199757 0.0199762 0.0199768 0.0199775 0.0199783 0.0199793 0.0199803 0.0199814 0.0199827 0.0199841 0.0199856 0.0199873 0.019989 0.0199909 0.019993 0.0199952 0.0199975 0.02 0.0200027 0.0200055 0.0200084 0.0200116 0.0200149 0.0200183 0.020022 0.0200258 0.0200297 0.0200339 0.0200382 0.0200427 0.0200474 0.0200523 0.0200573 0.0200625 0.0200679 0.0200735 0.0200793 0.0200852 0.0200914 0.0200977 0.0201041 0.0201108 0.0201176 0.0201245 0.0201317 0.020139 0.0201464 0.020154 0.0201617 0.0201696 0.0201776 0.0201858 0.020194 0.0202024 0.0202109 0.0202195 0.0202282 0.0202369 0.0202457 0.0202546 0.0202636 0.0202726 0.0202817 0.0202907 0.0202998 0.0203089 0.020318 0.0203271 0.0203362 0.0203452 0.0203542 0.0203631 0.020372 0.0203809 0.0203896 0.0203984 0.020407 0.0204154 0.0204239 0.0204324 0.0204408 0.0204491 0.0204572 0.0204652 0.0204731 0.0204808 0.0204883 0.0204957 0.0205029 0.0205099 0.0205166 0.0205232 0.0205296 0.0205357 0.0205416 0.0205472 0.0205526 0.0205577 0.0205626 0.0205672 0.0205715 0.0205755 0.0205793 0.0205827 0.0205858 0.0205887 0.0205912 0.0205934 0.0205952 0.0205968 0.020598 0.0205989 0.0205995 0.0205997 0.0205996 0.0205992 0.0205985 0.0205975 0.0205961 0.0205944 0.0205924 0.0205901 0.0205875 0.0205846 0.0205814 0.020578 0.0205742 0.0205702 0.020566 0.0205615 0.0205568 0.0205518 0.0205467 0.0205413 0.0205358 0.0205301 0.0205242 0.0205182 0.0205121 0.0205058 0.0204994 0.020493 0.0204864 0.0204798 0.0204731 0.0204664 0.0204597 0.0204529 0.0204461 0.0204392 0.0204323 0.0204254 0.0204185 0.0204115 0.0204043 0.0203971 0.0203898 0.0203822 0.0203744 0.0203664 0.0203581 0.0203493 0.0203402 0.0203306 0.0203204 0.0203096 0.0202981 0.0202858 0.0202727 0.0202588 0.0202439 0.020228 0.0202111 0.0201931 0.0201741 0.0201539 0.0201327 0.0201105 0.0200873 0.0200632 0.0200383 0.0200126 0.0199864 0.0199597 0.0199326 0.0199054 0.0198781 0.0198509 0.0198239 0.0197973 0.0197712 0.0197456 0.0197207 0.0196965 0.0196729 0.0196501 0.0196279 0.0196063 0.0195849 0.0195636 0.0195419 0.0195194 0.0194953 0.0194689 0.0194393 0.0194055 0.0193663 0.0193202 0.0192659 0.0192013 0.0191243 0.0190324 0.0189225 0.0187911 0.0186342 0.0184471 0.0182248 0.0179623 0.0176531 0.017296 0.0168959 0.0164552 0.0160457 0.015513 0.0153892 0.0156267 0.0146555 0.0133023 0.0120448 0.0107818 0.00935785 0.00775238 0.00624598 0.00577641 0.0034238 0 0 0 0 0 0 0 0 0 0 0 0 0 0 0 0 0 0 0 0 0 0 0 0 0 0 0 0 0 0 0 0 0 0 0 0 0 0 0 0 0 0 0 0 0 0 0 0 0 0 0 0 0 0 0 0 0 0 0 0 0 0 0 0 0 0 0 0 0 0 0 0 0 0 0 0 0 0 0 0 0 0 0 0 0 0 0 
0.0208613 0.0208197 0.0207741 0.0207269 0.0206791 0.0206314 0.020584 0.0205374 0.0204917 0.0204472 0.0204042 0.0203627 0.020323 0.0202854 0.0202499 0.0202168 0.0201861 0.020158 0.0201326 0.0201098 0.0200896 0.020072 0.020057 0.0200442 0.0200337 0.0200251 0.0200182 0.0200129 0.0200089 0.0200059 0.0200038 0.0200024 0.0200014 0.0200008 0.0200004 0.0200002 0.0200001 0.02 0.02 0.02 0.02 0.02 0.02 0.02 0.02 0.02 0.02 0.02 0.02 0.02 0.02 0.02 0.02 0.02 0.02 0.02 0.02 0.02 0.02 0.02 0.02 0.02 0.02 0.02 0.02 0.02 0.02 0.02 0.02 0.02 0.02 0.02 0.02 0.02 0.02 0.02 0.02 0.02 0.02 0.02 0.02 0.02 0.02 0.02 0.02 0.02 0.02 0.02 0.02 0.02 0.02 0.02 0.02 0.02 0.02 0.02 0.02 0.02 0.02 0.02 0.02 0.02 0.02 0.02 0.02 0.02 0.02 0.02 0.02 0.02 0.02 0.02 0.02 0.02 0.02 0.02 0.02 0.02 0.02 0.02 0.02 0.02 0.02 0.02 0.02 0.02 0.02 0.02 0.02 0.02 0.02 0.02 0.02 0.02 0.02 0.02 0.02 0.02 0.02 0.02 0.02 0.02 0.02 0.02 0.02 0.02 0.02 0.02 0.02 0.02 0.02 0.02 0.02 0.02 0.02 0.02 0.02 0.02 0.02 0.02 0.02 0.02 0.02 0.02 0.02 0.02 0.02 0.02 0.02 0.02 0.02 0.02 0.02 0.02 0.02 0.02 0.02 0.02 0.02 0.02 0.02 0.02 0.02 0.02 0.02 0.02 0.02 0.02 0.02 0.02 0.02 0.02 0.02 0.02 0.02 0.02 0.02 0.02 0.02 0.02 0.02 0.02 0.0199999 0.0199999 0.0199999 0.0199999 0.0199999 0.0199999 0.0199999 0.0199999 0.0199998 0.0199998 0.0199998 0.0199998 0.0199997 0.0199997 0.0199997 0.0199996 0.0199996 0.0199996 0.0199995 0.0199994 0.0199994 0.0199993 0.0199993 0.0199992 0.0199991 0.019999 0.0199989 0.0199988 0.0199987 0.0199986 0.0199984 0.0199983 0.0199982 0.019998 0.0199978 0.0199976 0.0199975 0.0199972 0.019997 0.0199968 0.0199966 0.0199963 0.019996 0.0199957 0.0199954 0.0199951 0.0199948 0.0199944 0.0199941 0.0199937 0.0199933 0.0199929 0.0199925 0.019992 0.0199916 0.0199911 0.0199906 0.0199901 0.0199896 0.019989 0.0199885 0.0199879 0.0199874 0.0199868 0.0199862 0.0199856 0.019985 0.0199844 0.0199838 0.0199832 0.0199826 0.019982 0.0199814 0.0199808 0.0199802 0.0199797 0.0199791 0.0199786 0.019978 0.0199775 0.0199771 0.0199766 0.0199762 0.0199758 0.0199755 0.0199752 0.0199749 0.0199747 0.0199745 0.0199744 0.0199744 0.0199744 0.0199745 0.0199746 0.0199748 0.019975 0.0199753 0.0199758 0.0199763 0.0199769 0.0199776 0.0199784 0.0199793 0.0199804 0.0199815 0.0199828 0.0199842 0.0199857 0.0199874 0.0199891 0.0199911 0.0199931 0.0199953 0.0199977 0.0200002 0.0200028 0.0200056 0.0200086 0.0200117 0.020015 0.0200185 0.0200221 0.0200259 0.0200299 0.0200341 0.0200384 0.0200429 0.0200476 0.0200524 0.0200575 0.0200627 0.0200681 0.0200737 0.0200795 0.0200854 0.0200915 0.0200978 0.0201042 0.0201109 0.0201176 0.0201246 0.0201317 0.020139 0.0201464 0.0201539 0.0201616 0.0201694 0.0201774 0.0201855 0.0201937 0.020202 0.0202104 0.0202189 0.0202275 0.0202361 0.0202449 0.0202537 0.0202625 0.0202714 0.0202803 0.0202893 0.0202982 0.0203072 0.0203162 0.0203252 0.0203341 0.0203431 0.020352 0.0203609 0.0203697 0.0203785 0.0203872 0.0203959 0.0204046 0.0204132 0.0204218 0.0204302 0.0204385 0.0204467 0.0204548 0.0204628 0.0204706 0.0204782 0.0204857 0.0204929 0.0205001 0.020507 0.0205137 0.0205202 0.0205265 0.0205325 0.0205383 0.0205439 0.0205492 0.0205543 0.0205591 0.0205636 0.0205679 0.0205718 0.0205755 0.0205789 0.0205819 0.0205847 0.0205871 0.0205892 0.020591 0.0205925 0.0205937 0.0205945 0.020595 0.0205952 0.020595 0.0205945 0.0205937 0.0205926 0.0205912 0.0205894 0.0205873 0.020585 0.0205823 0.0205793 0.0205761 0.0205726 0.0205688 0.0205647 0.0205604 0.0205559 0.0205511 0.0205461 0.0205409 0.0205355 0.0205299 0.0205242 0.0205183 0.0205122 0.020506 0.0204997 0.0204933 0.0204868 0.0204803 0.0204736 0.020467 0.0204602 0.0204535 0.0204467 0.0204399 0.0204331 0.0204262 0.0204193 0.0204124 0.0204054 0.0203984 0.0203912 0.0203839 0.0203764 0.0203688 0.0203608 0.0203526 0.020344 0.020335 0.0203256 0.0203155 0.0203049 0.0202936 0.0202816 0.0202688 0.0202551 0.0202405 0.0202249 0.0202084 0.0201907 0.020172 0.0201523 0.0201315 0.0201096 0.0200868 0.0200631 0.0200386 0.0200133 0.0199874 0.0199611 0.0199344 0.0199075 0.0198805 0.0198535 0.0198268 0.0198004 0.0197744 0.0197488 0.0197239 0.0196995 0.0196758 0.0196526 0.01963 0.0196078 0.0195858 0.0195637 0.0195411 0.0195174 0.0194922 0.0194645 0.0194335 0.0193982 0.0193574 0.0193097 0.0192537 0.0191876 0.0191091 0.0190157 0.0189045 0.018772 0.0186144 0.0184271 0.0182054 0.0179458 0.0176457 0.0173057 0.0169464 0.016552 0.0162075 0.0158521 0.0153417 0.0150912 0.0142722 0.0131951 0.0119889 0.0107161 0.00931092 0.00776709 0.00623137 0.00483779 0.00293983 0.00056452 -0.00171256 0 0 0 0 0 0 0 0 0 0 0 0 0 0 0 0 0 0 0 0 0 0 0 0 0 0 0 0 0 0 0 0 0 0 0 0 0 0 0 0 0 0 0 0 0 0 0 0 0 0 0 0 0 0 0 0 0 0 0 0 0 0 0 0 0 0 0 0 0 0 0 0 0 0 0 0 0 0 0 0 0 0 0 0 -1.73472e-18 
0.0208613 0.0208172 0.0207715 0.0207246 0.020677 0.0206294 0.0205821 0.0205355 0.0204898 0.0204453 0.0204022 0.0203607 0.020321 0.0202833 0.0202479 0.0202148 0.0201843 0.0201563 0.020131 0.0201083 0.0200883 0.0200709 0.020056 0.0200434 0.020033 0.0200246 0.0200179 0.0200127 0.0200087 0.0200058 0.0200038 0.0200023 0.0200014 0.0200008 0.0200004 0.0200002 0.0200001 0.02 0.02 0.02 0.02 0.02 0.02 0.02 0.02 0.02 0.02 0.02 0.02 0.02 0.02 0.02 0.02 0.02 0.02 0.02 0.02 0.02 0.02 0.02 0.02 0.02 0.02 0.02 0.02 0.02 0.02 0.02 0.02 0.02 0.02 0.02 0.02 0.02 0.02 0.02 0.02 0.02 0.02 0.02 0.02 0.02 0.02 0.02 0.02 0.02 0.02 0.02 0.02 0.02 0.02 0.02 0.02 0.02 0.02 0.02 0.02 0.02 0.02 0.02 0.02 0.02 0.02 0.02 0.02 0.02 0.02 0.02 0.02 0.02 0.02 0.02 0.02 0.02 0.02 0.02 0.02 0.02 0.02 0.02 0.02 0.02 0.02 0.02 0.02 0.02 0.02 0.02 0.02 0.02 0.02 0.02 0.02 0.02 0.02 0.02 0.02 0.02 0.02 0.02 0.02 0.02 0.02 0.02 0.02 0.02 0.02 0.02 0.02 0.02 0.02 0.02 0.02 0.02 0.02 0.02 0.02 0.02 0.02 0.02 0.02 0.02 0.02 0.02 0.02 0.02 0.02 0.02 0.02 0.02 0.02 0.02 0.02 0.02 0.02 0.02 0.02 0.02 0.02 0.02 0.02 0.02 0.02 0.02 0.02 0.02 0.02 0.02 0.02 0.02 0.02 0.02 0.02 0.02 0.02 0.02 0.02 0.02 0.02 0.02 0.02 0.02 0.0199999 0.0199999 0.0199999 0.0199999 0.0199999 0.0199999 0.0199999 0.0199999 0.0199998 0.0199998 0.0199998 0.0199998 0.0199997 0.0199997 0.0199997 0.0199996 0.0199996 0.0199996 0.0199995 0.0199994 0.0199994 0.0199993 0.0199993 0.0199992 0.0199991 0.019999 0.0199989 0.0199988 0.0199987 0.0199986 0.0199984 0.0199983 0.0199982 0.019998 0.0199978 0.0199977 0.0199975 0.0199973 0.019997 0.0199968 0.0199966 0.0199963 0.019996 0.0199958 0.0199955 0.0199951 0.0199948 0.0199945 0.0199941 0.0199937 0.0199933 0.0199929 0.0199925 0.019992 0.0199916 0.0199911 0.0199906 0.0199901 0.0199896 0.0199891 0.0199885 0.019988 0.0199874 0.0199868 0.0199863 0.0199857 0.0199851 0.0199845 0.0199839 0.0199833 0.0199827 0.0199821 0.0199815 0.0199809 0.0199803 0.0199797 0.0199792 0.0199786 0.0199781 0.0199776 0.0199771 0.0199767 0.0199763 0.0199759 0.0199756 0.0199753 0.019975 0.0199748 0.0199746 0.0199745 0.0199745 0.0199745 0.0199746 0.0199747 0.0199749 0.0199752 0.0199755 0.0199759 0.0199765 0.0199771 0.0199778 0.0199786 0.0199795 0.0199806 0.0199817 0.019983 0.0199844 0.0199859 0.0199876 0.0199894 0.0199913 0.0199934 0.0199956 0.0199979 0.0200004 0.0200031 0.0200059 0.0200089 0.020012 0.0200153 0.0200188 0.0200224 0.0200262 0.0200302 0.0200344 0.0200387 0.0200432 0.0200479 0.0200528 0.0200578 0.020063 0.0200684 0.020074 0.0200797 0.0200856 0.0200917 0.020098 0.0201044 0.020111 0.0201177 0.0201246 0.0201317 0.0201389 0.0201463 0.0201538 0.0201614 0.0201691 0.020177 0.020185 0.0201931 0.0202013 0.0202096 0.020218 0.0202265 0.020235 0.0202436 0.0202523 0.020261 0.0202697 0.0202785 0.0202873 0.0202962 0.020305 0.0203139 0.0203228 0.0203317 0.0203405 0.0203494 0.0203582 0.020367 0.0203758 0.0203845 0.0203932 0.0204018 0.0204103 0.0204188 0.0204271 0.0204353 0.0204434 0.0204514 0.0204593 0.0204669 0.0204745 0.0204818 0.020489 0.020496 0.0205029 0.0205095 0.0205159 0.0205221 0.020528 0.0205337 0.0205392 0.0205444 0.0205494 0.0205541 0.0205585 0.0205626 0.0205665 0.0205701 0.0205733 0.0205763 0.0205789 0.0205813 0.0205833 0.020585 0.0205863 0.0205874 0.0205881 0.0205885 0.0205886 0.0205883 0.0205877 0.0205868 0.0205856 0.020584 0.0205822 0.02058 0.0205775 0.0205748 0.0205717 0.0205684 0.0205647 0.0205609 0.0205567 0.0205523 0.0205477 0.0205428 0.0205378 0.0205325 0.020527 0.0205214 0.0205156 0.0205096 0.0205035 0.0204972 0.0204909 0.0204844 0.0204779 0.0204713 0.0204646 0.0204579 0.0204512 0.0204444 0.0204376 0.0204308 0.0204239 0.0204171 0.0204102 0.0204033 0.0203964 0.0203893 0.0203822 0.020375 0.0203676 0.02036 0.0203522 0.0203441 0.0203357 0.0203268 0.0203175 0.0203077 0.0202974 0.0202863 0.0202746 0.0202621 0.0202487 0.0202345 0.0202193 0.0202031 0.0201859 0.0201676 0.0201483 0.020128 0.0201067 0.0200844 0.0200612 0.0200372 0.0200124 0.0199871 0.0199612 0.019935 0.0199086 0.0198821 0.0198556 0.0198292 0.019803 0.0197773 0.0197519 0.019727 0.0197026 0.0196786 0.0196552 0.0196321 0.0196093 0.0195865 0.0195634 0.0195397 0.0195147 0.019488 0.0194586 0.0194258 0.0193886 0.0193457 0.0192959 0.0192376 0.0191692 0.0190885 0.018993 0.0188798 0.0187455 0.0185866 0.0183992 0.0181794 0.017926 0.017641 0.0173296 0.0170028 0.016673 0.0163247 0.0159931 0.0155563 0.0149297 0.014085 0.0130997 0.0119586 0.0107095 0.00934118 0.00785682 0.00632032 0.00469002 0.00272991 0.000408429 -0.00234661 -0.00599137 -0.0102602 0 0 0 0 0 0 0 0 0 0 0 0 0 0 0 0 0 0 0 0 0 0 0 0 0 0 0 0 0 0 0 0 0 0 0 0 0 0 0 0 0 0 0 0 0 0 0 0 0 0 0 0 0 0 0 0 0 0 0 0 0 0 0 0 0 0 0 0 0 0 0 0 0 0 0 0 0 0 0 0 0 0 -3.46945e-18 
0.0208613 0.0208157 0.0207696 0.0207226 0.0206752 0.0206277 0.0205804 0.0205338 0.0204881 0.0204435 0.0204003 0.0203588 0.0203191 0.0202815 0.0202461 0.020213 0.0201825 0.0201547 0.0201295 0.0201069 0.0200871 0.0200699 0.0200551 0.0200427 0.0200325 0.0200241 0.0200175 0.0200124 0.0200086 0.0200057 0.0200037 0.0200023 0.0200014 0.0200008 0.0200004 0.0200002 0.0200001 0.02 0.02 0.02 0.02 0.02 0.02 0.02 0.02 0.02 0.02 0.02 0.02 0.02 0.02 0.02 0.02 0.02 0.02 0.02 0.02 0.02 0.02 0.02 0.02 0.02 0.02 0.02 0.02 0.02 0.02 0.02 0.02 0.02 0.02 0.02 0.02 0.02 0.02 0.02 0.02 0.02 0.02 0.02 0.02 0.02 0.02 0.02 0.02 0.02 0.02 0.02 0.02 0.02 0.02 0.02 0.02 0.02 0.02 0.02 0.02 0.02 0.02 0.02 0.02 0.02 0.02 0.02 0.02 0.02 0.02 0.02 0.02 0.02 0.02 0.02 0.02 0.02 0.02 0.02 0.02 0.02 0.02 0.02 0.02 0.02 0.02 0.02 0.02 0.02 0.02 0.02 0.02 0.02 0.02 0.02 0.02 0.02 0.02 0.02 0.02 0.02 0.02 0.02 0.02 0.02 0.02 0.02 0.02 0.02 0.02 0.02 0.02 0.02 0.02 0.02 0.02 0.02 0.02 0.02 0.02 0.02 0.02 0.02 0.02 0.02 0.02 0.02 0.02 0.02 0.02 0.02 0.02 0.02 0.02 0.02 0.02 0.02 0.02 0.02 0.02 0.02 0.02 0.02 0.02 0.02 0.02 0.02 0.02 0.02 0.02 0.02 0.02 0.02 0.02 0.02 0.02 0.02 0.02 0.02 0.02 0.02 0.02 0.02 0.02 0.02 0.0199999 0.0199999 0.0199999 0.0199999 0.0199999 0.0199999 0.0199999 0.0199999 0.0199998 0.0199998 0.0199998 0.0199998 0.0199997 0.0199997 0.0199997 0.0199996 0.0199996 0.0199996 0.0199995 0.0199994 0.0199994 0.0199993 0.0199993 0.0199992 0.0199991 0.019999 0.0199989 0.0199988 0.0199987 0.0199986 0.0199985 0.0199983 0.0199982 0.019998 0.0199978 0.0199977 0.0199975 0.0199973 0.0199971 0.0199968 0.0199966 0.0199963 0.0199961 0.0199958 0.0199955 0.0199952 0.0199948 0.0199945 0.0199941 0.0199937 0.0199934 0.0199929 0.0199925 0.0199921 0.0199916 0.0199912 0.0199907 0.0199902 0.0199897 0.0199891 0.0199886 0.019988 0.0199875 0.0199869 0.0199863 0.0199857 0.0199852 0.0199846 0.019984 0.0199834 0.0199828 0.0199822 0.0199816 0.019981 0.0199804 0.0199798 0.0199793 0.0199788 0.0199782 0.0199777 0.0199773 0.0199768 0.0199764 0.019976 0.0199757 0.0199754 0.0199752 0.019975 0.0199748 0.0199747 0.0199747 0.0199747 0.0199748 0.0199749 0.0199751 0.0199754 0.0199758 0.0199762 0.0199767 0.0199774 0.0199781 0.0199789 0.0199798 0.0199809 0.0199821 0.0199833 0.0199847 0.0199863 0.0199879 0.0199897 0.0199917 0.0199937 0.0199959 0.0199983 0.0200008 0.0200035 0.0200063 0.0200093 0.0200124 0.0200158 0.0200192 0.0200229 0.0200267 0.0200307 0.0200348 0.0200391 0.0200436 0.0200483 0.0200532 0.0200582 0.0200634 0.0200688 0.0200743 0.02008 0.0200859 0.020092 0.0200982 0.0201046 0.0201111 0.0201178 0.0201246 0.0201316 0.0201388 0.020146 0.0201534 0.020161 0.0201686 0.0201764 0.0201843 0.0201922 0.0202003 0.0202085 0.0202167 0.0202251 0.0202335 0.0202419 0.0202505 0.020259 0.0202677 0.0202763 0.020285 0.0202938 0.0203025 0.0203113 0.0203201 0.0203288 0.0203376 0.0203464 0.0203551 0.0203639 0.0203725 0.0203811 0.0203897 0.0203981 0.0204065 0.0204148 0.020423 0.0204311 0.0204391 0.0204469 0.0204546 0.0204622 0.0204696 0.0204768 0.0204839 0.0204907 0.0204974 0.0205039 0.0205102 0.0205162 0.020522 0.0205276 0.020533 0.0205381 0.0205429 0.0205475 0.0205517 0.0205558 0.0205595 0.0205629 0.020566 0.0205688 0.0205714 0.0205736 0.0205754 0.020577 0.0205782 0.0205792 0.0205797 0.02058 0.0205799 0.0205795 0.0205788 0.0205778 0.0205764 0.0205747 0.0205728 0.0205705 0.0205679 0.020565 0.0205618 0.0205583 0.0205546 0.0205506 0.0205463 0.0205418 0.0205371 0.0205321 0.0205269 0.0205216 0.020516 0.0205103 0.0205043 0.0204983 0.0204921 0.0204858 0.0204794 0.0204728 0.0204662 0.0204596 0.0204529 0.0204461 0.0204393 0.0204325 0.0204256 0.0204188 0.0204119 0.0204051 0.0203982 0.0203913 0.0203844 0.0203774 0.0203703 0.0203631 0.0203558 0.0203483 0.0203406 0.0203326 0.0203243 0.0203156 0.0203065 0.020297 0.0202868 0.0202761 0.0202646 0.0202525 0.0202395 0.0202256 0.0202109 0.0201952 0.0201785 0.0201608 0.020142 0.0201223 0.0201016 0.0200799 0.0200574 0.020034 0.02001 0.0199853 0.0199602 0.0199346 0.0199088 0.0198829 0.0198569 0.019831 0.0198053 0.0197799 0.0197548 0.01973 0.0197056 0.0196815 0.0196578 0.0196342 0.0196107 0.019587 0.0195628 0.0195377 0.0195112 0.0194827 0.0194514 0.0194164 0.0193768 0.0193314 0.0192789 0.0192179 0.0191466 0.0190631 0.0189648 0.0188489 0.0187124 0.018552 0.0183648 0.0181489 0.0179048 0.0176383 0.0173554 0.0170597 0.0167545 0.0164057 0.0159832 0.0154965 0.0148427 0.0140164 0.0130551 0.0119541 0.010738 0.00940744 0.00794242 0.00633791 0.00461688 0.00261594 0.000296918 -0.00248639 -0.00603545 -0.0105448 -0.0168243 -0.0243037 0 0 0 0 0 0 0 0 0 0 0 0 0 0 0 0 0 0 0 0 0 0 0 0 0 0 0 0 0 0 0 0 0 0 0 0 0 0 0 0 0 0 0 0 0 0 0 0 0 0 0 0 0 0 0 0 0 0 0 0 0 0 0 0 0 0 0 0 0 0 0 0 0 0 0 0 0 0 0 0 -1.73472e-18 
0.0208613 0.0208147 0.020768 0.0207209 0.0206734 0.0206259 0.0205787 0.0205321 0.0204863 0.0204417 0.0203985 0.020357 0.0203173 0.0202797 0.0202443 0.0202113 0.0201809 0.0201531 0.020128 0.0201057 0.020086 0.0200689 0.0200543 0.020042 0.0200319 0.0200237 0.0200172 0.0200122 0.0200084 0.0200056 0.0200036 0.0200023 0.0200013 0.0200008 0.0200004 0.0200002 0.0200001 0.02 0.02 0.02 0.02 0.02 0.02 0.02 0.02 0.02 0.02 0.02 0.02 0.02 0.02 0.02 0.02 0.02 0.02 0.02 0.02 0.02 0.02 0.02 0.02 0.02 0.02 0.02 0.02 0.02 0.02 0.02 0.02 0.02 0.02 0.02 0.02 0.02 0.02 0.02 0.02 0.02 0.02 0.02 0.02 0.02 0.02 0.02 0.02 0.02 0.02 0.02 0.02 0.02 0.02 0.02 0.02 0.02 0.02 0.02 0.02 0.02 0.02 0.02 0.02 0.02 0.02 0.02 0.02 0.02 0.02 0.02 0.02 0.02 0.02 0.02 0.02 0.02 0.02 0.02 0.02 0.02 0.02 0.02 0.02 0.02 0.02 0.02 0.02 0.02 0.02 0.02 0.02 0.02 0.02 0.02 0.02 0.02 0.02 0.02 0.02 0.02 0.02 0.02 0.02 0.02 0.02 0.02 0.02 0.02 0.02 0.02 0.02 0.02 0.02 0.02 0.02 0.02 0.02 0.02 0.02 0.02 0.02 0.02 0.02 0.02 0.02 0.02 0.02 0.02 0.02 0.02 0.02 0.02 0.02 0.02 0.02 0.02 0.02 0.02 0.02 0.02 0.02 0.02 0.02 0.02 0.02 0.02 0.02 0.02 0.02 0.02 0.02 0.02 0.02 0.02 0.02 0.02 0.02 0.02 0.02 0.02 0.02 0.02 0.02 0.02 0.0199999 0.0199999 0.0199999 0.0199999 0.0199999 0.0199999 0.0199999 0.0199999 0.0199998 0.0199998 0.0199998 0.0199998 0.0199997 0.0199997 0.0199997 0.0199996 0.0199996 0.0199996 0.0199995 0.0199995 0.0199994 0.0199993 0.0199993 0.0199992 0.0199991 0.019999 0.0199989 0.0199988 0.0199987 0.0199986 0.0199985 0.0199983 0.0199982 0.019998 0.0199979 0.0199977 0.0199975 0.0199973 0.0199971 0.0199968 0.0199966 0.0199963 0.0199961 0.0199958 0.0199955 0.0199952 0.0199949 0.0199945 0.0199942 0.0199938 0.0199934 0.019993 0.0199926 0.0199921 0.0199917 0.0199912 0.0199907 0.0199902 0.0199897 0.0199892 0.0199887 0.0199881 0.0199876 0.019987 0.0199864 0.0199858 0.0199853 0.0199847 0.0199841 0.0199835 0.0199829 0.0199823 0.0199817 0.0199811 0.0199806 0.01998 0.0199795 0.0199789 0.0199784 0.0199779 0.0199775 0.019977 0.0199766 0.0199763 0.0199759 0.0199756 0.0199754 0.0199752 0.019975 0.019975 0.0199749 0.0199749 0.019975 0.0199752 0.0199754 0.0199757 0.0199761 0.0199766 0.0199771 0.0199777 0.0199785 0.0199793 0.0199803 0.0199813 0.0199825 0.0199838 0.0199852 0.0199867 0.0199884 0.0199902 0.0199922 0.0199942 0.0199965 0.0199988 0.0200014 0.020004 0.0200069 0.0200098 0.020013 0.0200163 0.0200198 0.0200234 0.0200272 0.0200312 0.0200354 0.0200397 0.0200442 0.0200488 0.0200537 0.0200587 0.0200638 0.0200692 0.0200747 0.0200804 0.0200862 0.0200922 0.0200984 0.0201047 0.0201111 0.0201178 0.0201245 0.0201314 0.0201384 0.0201456 0.0201529 0.0201603 0.0201679 0.0201755 0.0201832 0.0201911 0.020199 0.0202071 0.0202152 0.0202234 0.0202316 0.02024 0.0202484 0.0202568 0.0202653 0.0202739 0.0202824 0.020291 0.0202997 0.0203083 0.0203169 0.0203256 0.0203342 0.0203428 0.0203514 0.02036 0.0203685 0.0203769 0.0203853 0.0203936 0.0204018 0.0204099 0.0204179 0.0204259 0.0204336 0.0204413 0.0204488 0.0204562 0.0204635 0.0204705 0.0204774 0.0204841 0.0204906 0.0204969 0.020503 0.0205089 0.0205146 0.02052 0.0205252 0.0205301 0.0205348 0.0205392 0.0205433 0.0205471 0.0205507 0.020554 0.0205569 0.0205596 0.0205619 0.020564 0.0205657 0.0205671 0.0205682 0.0205689 0.0205694 0.0205695 0.0205692 0.0205687 0.0205678 0.0205666 0.0205651 0.0205633 0.0205611 0.0205587 0.0205559 0.0205529 0.0205496 0.020546 0.0205421 0.020538 0.0205336 0.0205289 0.0205241 0.020519 0.0205137 0.0205082 0.0205025 0.0204967 0.0204906 0.0204845 0.0204782 0.0204718 0.0204653 0.0204586 0.020452 0.0204452 0.0204384 0.0204316 0.0204247 0.0204178 0.020411 0.0204041 0.0203972 0.0203903 0.0203834 0.0203765 0.0203695 0.0203625 0.0203555 0.0203483 0.0203411 0.0203336 0.020326 0.0203182 0.02031 0.0203015 0.0202926 0.0202833 0.0202734 0.020263 0.0202519 0.0202401 0.0202275 0.0202141 0.0201999 0.0201847 0.0201686 0.0201515 0.0201334 0.0201144 0.0200944 0.0200735 0.0200518 0.0200292 0.020006 0.0199821 0.0199578 0.0199331 0.0199081 0.0198829 0.0198576 0.0198324 0.0198072 0.0197823 0.0197575 0.0197329 0.0197086 0.0196844 0.0196603 0.0196362 0.019612 0.0195873 0.0195619 0.0195353 0.0195071 0.0194765 0.0194429 0.0194055 0.0193631 0.0193148 0.0192593 0.019195 0.0191204 0.0190334 0.0189317 0.0188127 0.0186736 0.0185117 0.0183255 0.0181151 0.0178825 0.0176337 0.017374 0.0170998 0.0167968 0.0164569 0.0160196 0.0154644 0.0147814 0.0139677 0.0130293 0.011967 0.0107835 0.00946945 0.00802114 0.00639233 0.0045626 0.00250909 0.000192504 -0.00255766 -0.00610394 -0.0105822 -0.0168466 -0.0258815 -0.0304081 0 0 0 0 0 0 0 0 0 0 0 0 0 0 0 0 0 0 0 0 0 0 0 0 0 0 0 0 0 0 0 0 0 0 0 0 0 0 0 0 0 0 0 0 0 0 0 0 0 0 0 0 0 0 0 0 0 0 0 0 0 0 0 0 0 0 0 0 0 0 0 0 0 0 0 0 0 0 0 -2.1684e-18 