# vtk DataFile Version 2.0
iteration 540
ASCII

DATASET STRUCTURED_POINTS
DIMENSIONS 621 64 1
ORIGIN 0 0 0
SPACING 0.00161031 0.00161031 0.00161031

POINT_DATA 39744
SCALARS P float 1
LOOKUP_TABLE default
0 0 0 0 0 0 0 0 0 0 0 0 0 0 0 0 0 0 0 0 0 0 0 0 0 0 0 0 0 0 0 0 0 0 0 0 0 0 0 0 0 0 0 0 0 0 0 0 0 0 0 0 0 0 0 0 0 0 0 0 0 0 0 0 0 0 0 0 0 0 0 0 0 0 0 0 0 0 0 0 0 0 0 0 0 0 0 0 0 0 0 0 0 0 0 0 0 0 0 0 0 0 0 0 0 0 0 0 0 0 0 0 0 0 0 0 0 0 0 0 0 0 0 0 0 0 0 0 0 0 0 0 0 0 0 0 0 0 0 0 0 0 0 0 0 0 0 0 0 0 0 0 0 0 0 0 0 0 0 0 0 0 0 0 0 0 0 0 0 0 0 0 0 0 0 0 0 0 0 0 0 0 0 0 0 0 0 0 0 0 0 0 0 0 0 0 0 0 0 0 0 0 0 0 0 0 0 0 0 0 0 0 0 0 0 0 0 0 0 0 0 0 0 0 0 0 0 0 0 0 0 0 0 0 0 0 0 0 0 0 0 0 0 0 0 0 0 0 0 0 0 0 0 0 0 0 0 0 0 0 0 0 0 0 0 0 0 0 0 0 0 0 0 0 0 0 0 0 0 0 0 0 0 0 0 0 0 0 0 0 0 0 0 0 0 0 0 0 0 0 0 0 0 0 0 0 0 0 0 0 0 0 0 0 0 0 0 0 0 0 0 0 0 0 0 0 0 0 0 0 0 0 0 0 0 0 0 0 0 0 0 0 0 0 0 0 0 0 0 0 0 0 0 0 0 0 0 0 0 0 0 0 0 0 0 0 0 0 0 0 0 0 0 0 0 0 0 0 0 0 0 0 0 0 0 0 0 0 0 0 0 0 0 0 0 0 0 0 0 0 0 0 0 0 0 0 0 0 0 0 0 0 0 0 0 0 0 0 0 0 0 0 0 0 0 0 0 0 0 0 0 0 0 0 0 0 0 0 0 0 0 0 0 0 0 0 0 0 0 0 0 0 0 0 0 0 0 0 0 0 0 0 0 0 0 0 0 0 0 0 0 0 0 0 0 0 0 0 0 0 0 0 0 0 0 0 0 0 0 0 0 0 0 0 0 0 0 0 0 0 0 0 0 0 0 0 0 0 0 0 0 0 0 0 0 0 0 0 0 0 0 0 0 0 0 0 0 0 0 0 0 0 0 0 0 0 0 0 0 0 0 0 0 0 0 0 0 0 0 0 0 0 0 0 0 0 0 0 0 0 0 0 0 0 0 0 0 0 0 0 0 0 0 0 0 0 0 0 0 0 0 0 0 0 0 0 0 0 0 0 0 0 0 0 0 0 0 0 0 0 0 0 0 0 0 0 0 0 0 0 0 0 0 0 0 0 0 0 0 0 0 
0.02 0.02 0.02 0.02 0.02 0.0200001 0.0200001 0.0200001 0.0200001 0.0200002 0.0200002 0.0200003 0.0200004 0.0200004 0.0200005 0.0200006 0.0200007 0.0200009 0.0200011 0.0200012 0.0200015 0.0200017 0.020002 0.0200023 0.0200026 0.020003 0.0200034 0.0200038 0.0200043 0.0200047 0.0200052 0.0200057 0.0200061 0.0200064 0.0200067 0.0200069 0.020007 0.020007 0.0200068 0.0200063 0.0200057 0.0200048 0.0200037 0.0200023 0.0200007 0.0199988 0.0199967 0.0199943 0.0199917 0.0199891 0.0199863 0.0199835 0.0199809 0.0199784 0.0199763 0.0199747 0.0199737 0.0199737 0.0199747 0.019977 0.019981 0.019987 0.0199952 0.0200063 0.0200205 0.0200383 0.0200604 0.0200872 0.0201194 0.0201577 0.0202026 0.0202549 0.0203153 0.0203844 0.020463 0.0205515 0.0206505 0.0207603 0.0208812 0.0210129 0.0211525 0.0212872 0.0214314 0.0215923 0.0217679 0.021953 0.0221438 0.0223378 0.022532 0.0227232 0.0229078 0.0230817 0.0232389 0.0233668 0.023433 0.0234106 0.0233638 0.0233638 0.0235789 0.0273376 0 0 0 0 0 0 0 0 0 0 0 0 0 0 0 0 0 0 0 0 0 0 0 0 0 0 0 0 0 0 0 0 0 0 0 0 0 0 0 0 0 0 0 0 0 0 0 0 0 0 0 0 0 0 0 0 0 0 0 0 0 0 0 0 0 0 0 0 0 0 0 0 0 0 0 0 0 0 0 0 0 0 0 0 0 0 0 0 0 0 0 0 0 0 0 0 0 0 0 0 0 0 0 0 0 0 0 0 0 0 0 0 0 0 0 0 0 0 0 0 0 0 0 0 0 0 0 0 0 0 0 0 0 0 0 0 0 0 0 0 0 0 0 0 0 0 0 0 0 0 0 0 0 0 0 0 0 0 0 0 0 0 0 0 0 0 0 0 0 0 0 0 0 0 0 0 0 0 0 0 0 0 0 0 0 0 0 0 0 0 0 0 0 0 0 0 0 0 0 0 0 0 0 0 0 0 0 0 0 0 0 0 0 0 0 0 0 0 0 0 0 0 0 0 0 0 0 0 0 0 0 0 0 0 0 0 0 0 0 0 0 0 0 0 0 0 0 0 0 0 0 0 0 0 0 0 0 0 0 0 0 0 0 0 0 0 0 0 0 0 0 0 0 0 0 0 0 0 0 0 0 0 0 0 0 0 0 0 0 0 0 0 0 0 0 0 0 0 0 0 0 0 0 0 0 0 0 0 0 0 0 0 0 0 0 0 0 0 0 0 0 0 0 0 0 0 0 0 0 0 0 0 0 0 0 0 0 0 0 0 0 0 0 0 0 0 0 0 0 0 0 0 0 0 0 0 0 0 0 0 0 0 0 0 0 0 0 0 0 0 0 0 0 0 0 0 0 0 0 0 0 0 0 0 0 0 0 0 0 0 0 0 0 0 0 0 0 0 0 0 0 0 0 0 0 0 0 0 0 0 0 0 0 0 0 0 0 0 0 0 0 0 0 0 0 0 0 0 0 0 0 0 0 0 0 0 0 0 0 0 0 0 0 0 0 0 0 0 0 0 0 0 0 0 0 0 0 0 0 0 0 0 0 0 0 0 0 0 0 0 0 0 0 0 0 0 0 0 0 0 0 0 0 0 0 0 0 0 0 0 0 0 0 0 0 0 0 0 0 0 0 0 0 0 0 0 0 0 0 0 0 0 0 0 0 0 0 0 0 0 0 
0.02 0.02 0.02 0.02 0.02 0.0200001 0.0200001 0.0200001 0.0200001 0.0200002 0.0200002 0.0200003 0.0200003 0.0200004 0.0200005 0.0200006 0.0200007 0.0200009 0.020001 0.0200012 0.0200014 0.0200017 0.0200019 0.0200022 0.0200026 0.020003 0.0200034 0.0200038 0.0200042 0.0200047 0.0200052 0.0200056 0.020006 0.0200064 0.0200067 0.0200069 0.020007 0.020007 0.0200068 0.0200064 0.0200058 0.020005 0.020004 0.0200026 0.020001 0.0199992 0.0199971 0.0199948 0.0199923 0.0199897 0.019987 0.0199843 0.0199817 0.0199793 0.0199772 0.0199756 0.0199746 0.0199745 0.0199754 0.0199776 0.0199814 0.0199871 0.0199951 0.0200058 0.0200195 0.0200368 0.0200583 0.0200844 0.0201157 0.020153 0.0201969 0.020248 0.020307 0.0203747 0.0204516 0.0205383 0.0206354 0.0207431 0.0208617 0.0209908 0.0211278 0.0212676 0.0214134 0.0215728 0.0217448 0.0219262 0.0221137 0.0223047 0.0224962 0.0226847 0.0228669 0.0230387 0.0231944 0.023323 0.0233979 0.0233886 0.0233932 0.0234961 0.023525 0.0239713 0.0235604 0.0225398 0.0215702 0.0205308 0.0192156 0.0175474 0.0160469 0.016354 0 0 0 0 0 0 0 0 0 0 0 0 0 0 0 0 0 0 0 0 0 0 0 0 0 0 0 0 0 0 0 0 0 0 0 0 0 0 0 0 0 0 0 0 0 0 0 0 0 0 0 0 0 0 0 0 0 0 0 0 0 0 0 0 0 0 0 0 0 0 0 0 0 0 0 0 0 0 0 0 0 0 0 0 0 0 0 0 0 0 0 0 0 0 0 0 0 0 0 0 0 0 0 0 0 0 0 0 0 0 0 0 0 0 0 0 0 0 0 0 0 0 0 0 0 0 0 0 0 0 0 0 0 0 0 0 0 0 0 0 0 0 0 0 0 0 0 0 0 0 0 0 0 0 0 0 0 0 0 0 0 0 0 0 0 0 0 0 0 0 0 0 0 0 0 0 0 0 0 0 0 0 0 0 0 0 0 0 0 0 0 0 0 0 0 0 0 0 0 0 0 0 0 0 0 0 0 0 0 0 0 0 0 0 0 0 0 0 0 0 0 0 0 0 0 0 0 0 0 0 0 0 0 0 0 0 0 0 0 0 0 0 0 0 0 0 0 0 0 0 0 0 0 0 0 0 0 0 0 0 0 0 0 0 0 0 0 0 0 0 0 0 0 0 0 0 0 0 0 0 0 0 0 0 0 0 0 0 0 0 0 0 0 0 0 0 0 0 0 0 0 0 0 0 0 0 0 0 0 0 0 0 0 0 0 0 0 0 0 0 0 0 0 0 0 0 0 0 0 0 0 0 0 0 0 0 0 0 0 0 0 0 0 0 0 0 0 0 0 0 0 0 0 0 0 0 0 0 0 0 0 0 0 0 0 0 0 0 0 0 0 0 0 0 0 0 0 0 0 0 0 0 0 0 0 0 0 0 0 0 0 0 0 0 0 0 0 0 0 0 0 0 0 0 0 0 0 0 0 0 0 0 0 0 0 0 0 0 0 0 0 0 0 0 0 0 0 0 0 0 0 0 0 0 0 0 0 0 0 0 0 0 0 0 0 0 0 0 0 0 0 0 0 0 0 0 0 0 0 0 0 0 0 0 0 0 0 0 0 0 0 0 0 0 0 0 0 0 0 0 0 0 0 0 0 0 0 0 0 0 0 0 0 0 0 0 0 0 0 0 0 0 0 0 0 0 0 0 0 0 0 0 0 
0.02 0.02 0.02 0.02 0.02 0.0200001 0.0200001 0.0200001 0.0200001 0.0200002 0.0200002 0.0200003 0.0200003 0.0200004 0.0200005 0.0200006 0.0200007 0.0200008 0.020001 0.0200012 0.0200014 0.0200016 0.0200018 0.0200021 0.0200025 0.0200028 0.0200032 0.0200036 0.020004 0.0200045 0.0200049 0.0200054 0.0200058 0.0200061 0.0200064 0.0200066 0.0200067 0.0200066 0.0200064 0.020006 0.0200054 0.0200045 0.0200035 0.0200021 0.0200005 0.0199987 0.0199966 0.0199943 0.0199918 0.0199891 0.0199864 0.0199837 0.0199811 0.0199786 0.0199765 0.0199748 0.0199738 0.0199736 0.0199744 0.0199765 0.0199801 0.0199856 0.0199933 0.0200037 0.020017 0.0200339 0.0200548 0.0200803 0.020111 0.0201475 0.0201904 0.0202405 0.0202985 0.0203649 0.0204405 0.0205258 0.0206213 0.0207274 0.0208442 0.0209712 0.0211066 0.0212476 0.0213939 0.0215508 0.0217187 0.0218956 0.0220791 0.0222665 0.0224546 0.0226401 0.0228196 0.0229892 0.0231446 0.0232792 0.0233805 0.0234265 0.023472 0.0236007 0.0236825 0.0235626 0.0230917 0.0223377 0.0213994 0.0203007 0.0189432 0.0173856 0.0158844 0.0145511 0.0124524 0.0101913 0.00936975 0 0 0 0 0 0 0 0 0 0 0 0 0 0 0 0 0 0 0 0 0 0 0 0 0 0 0 0 0 0 0 0 0 0 0 0 0 0 0 0 0 0 0 0 0 0 0 0 0 0 0 0 0 0 0 0 0 0 0 0 0 0 0 0 0 0 0 0 0 0 0 0 0 0 0 0 0 0 0 0 0 0 0 0 0 0 0 0 0 0 0 0 0 0 0 0 0 0 0 0 0 0 0 0 0 0 0 0 0 0 0 0 0 0 0 0 0 0 0 0 0 0 0 0 0 0 0 0 0 0 0 0 0 0 0 0 0 0 0 0 0 0 0 0 0 0 0 0 0 0 0 0 0 0 0 0 0 0 0 0 0 0 0 0 0 0 0 0 0 0 0 0 0 0 0 0 0 0 0 0 0 0 0 0 0 0 0 0 0 0 0 0 0 0 0 0 0 0 0 0 0 0 0 0 0 0 0 0 0 0 0 0 0 0 0 0 0 0 0 0 0 0 0 0 0 0 0 0 0 0 0 0 0 0 0 0 0 0 0 0 0 0 0 0 0 0 0 0 0 0 0 0 0 0 0 0 0 0 0 0 0 0 0 0 0 0 0 0 0 0 0 0 0 0 0 0 0 0 0 0 0 0 0 0 0 0 0 0 0 0 0 0 0 0 0 0 0 0 0 0 0 0 0 0 0 0 0 0 0 0 0 0 0 0 0 0 0 0 0 0 0 0 0 0 0 0 0 0 0 0 0 0 0 0 0 0 0 0 0 0 0 0 0 0 0 0 0 0 0 0 0 0 0 0 0 0 0 0 0 0 0 0 0 0 0 0 0 0 0 0 0 0 0 0 0 0 0 0 0 0 0 0 0 0 0 0 0 0 0 0 0 0 0 0 0 0 0 0 0 0 0 0 0 0 0 0 0 0 0 0 0 0 0 0 0 0 0 0 0 0 0 0 0 0 0 0 0 0 0 0 0 0 0 0 0 0 0 0 0 0 0 0 0 0 0 0 0 0 0 0 0 0 0 0 0 0 0 0 0 0 0 0 0 0 0 0 0 0 0 0 0 0 0 0 0 0 0 0 0 0 0 0 0 0 0 0 0 0 0 0 0 0 0 0 0 0 0 0 0 0 0 0 0 0 0 0 0 0 0 2.71051e-20 
0.02 0.02 0.02 0.02 0.02 0.0200001 0.0200001 0.0200001 0.0200001 0.0200002 0.0200002 0.0200002 0.0200003 0.0200004 0.0200004 0.0200005 0.0200006 0.0200008 0.0200009 0.0200011 0.0200013 0.0200015 0.0200017 0.020002 0.0200023 0.0200027 0.020003 0.0200034 0.0200038 0.0200042 0.0200046 0.020005 0.0200054 0.0200057 0.020006 0.0200062 0.0200062 0.0200061 0.0200059 0.0200055 0.0200048 0.020004 0.0200029 0.0200015 0.0199999 0.0199981 0.019996 0.0199937 0.0199912 0.0199886 0.0199859 0.0199832 0.0199805 0.0199781 0.019976 0.0199743 0.0199732 0.019973 0.0199737 0.0199757 0.0199792 0.0199845 0.019992 0.020002 0.020015 0.0200313 0.0200517 0.0200765 0.0201063 0.0201418 0.0201837 0.0202326 0.0202891 0.020354 0.0204278 0.0205111 0.0206046 0.0207084 0.0208226 0.0209469 0.0210797 0.0212192 0.0213648 0.0215187 0.0216817 0.0218533 0.0220315 0.0222138 0.0223972 0.0225784 0.0227539 0.0229206 0.0230763 0.0232205 0.0233527 0.0234625 0.0235379 0.0236064 0.0236027 0.0233373 0.0228358 0.0221497 0.0212518 0.0201255 0.0187736 0.0172893 0.0157777 0.0141749 0.0121095 0.00968534 0.00817354 0.00921751 0 0 0 0 0 0 0 0 0 0 0 0 0 0 0 0 0 0 0 0 0 0 0 0 0 0 0 0 0 0 0 0 0 0 0 0 0 0 0 0 0 0 0 0 0 0 0 0 0 0 0 0 0 0 0 0 0 0 0 0 0 0 0 0 0 0 0 0 0 0 0 0 0 0 0 0 0 0 0 0 0 0 0 0 0 0 0 0 0 0 0 0 0 0 0 0 0 0 0 0 0 0 0 0 0 0 0 0 0 0 0 0 0 0 0 0 0 0 0 0 0 0 0 0 0 0 0 0 0 0 0 0 0 0 0 0 0 0 0 0 0 0 0 0 0 0 0 0 0 0 0 0 0 0 0 0 0 0 0 0 0 0 0 0 0 0 0 0 0 0 0 0 0 0 0 0 0 0 0 0 0 0 0 0 0 0 0 0 0 0 0 0 0 0 0 0 0 0 0 0 0 0 0 0 0 0 0 0 0 0 0 0 0 0 0 0 0 0 0 0 0 0 0 0 0 0 0 0 0 0 0 0 0 0 0 0 0 0 0 0 0 0 0 0 0 0 0 0 0 0 0 0 0 0 0 0 0 0 0 0 0 0 0 0 0 0 0 0 0 0 0 0 0 0 0 0 0 0 0 0 0 0 0 0 0 0 0 0 0 0 0 0 0 0 0 0 0 0 0 0 0 0 0 0 0 0 0 0 0 0 0 0 0 0 0 0 0 0 0 0 0 0 0 0 0 0 0 0 0 0 0 0 0 0 0 0 0 0 0 0 0 0 0 0 0 0 0 0 0 0 0 0 0 0 0 0 0 0 0 0 0 0 0 0 0 0 0 0 0 0 0 0 0 0 0 0 0 0 0 0 0 0 0 0 0 0 0 0 0 0 0 0 0 0 0 0 0 0 0 0 0 0 0 0 0 0 0 0 0 0 0 0 0 0 0 0 0 0 0 0 0 0 0 0 0 0 0 0 0 0 0 0 0 0 0 0 0 0 0 0 0 0 0 0 0 0 0 0 0 0 0 0 0 0 0 0 0 0 0 0 0 0 0 0 0 0 0 0 0 0 0 0 0 0 0 0 0 0 0 0 0 0 0 0 0 0 0 0 0 0 0 0 0 0 0 0 0 0 0 0 0 0 0 0 0 0 0 -0.00402347 0 
0.02 0.02 0.02 0.02 0.02 0.02 0.0200001 0.0200001 0.0200001 0.0200001 0.0200002 0.0200002 0.0200003 0.0200003 0.0200004 0.0200005 0.0200006 0.0200007 0.0200008 0.020001 0.0200012 0.0200014 0.0200016 0.0200019 0.0200022 0.0200025 0.0200028 0.0200032 0.0200036 0.0200039 0.0200043 0.0200047 0.0200051 0.0200054 0.0200056 0.0200057 0.0200058 0.0200057 0.0200054 0.020005 0.0200043 0.0200035 0.0200024 0.0200011 0.0199995 0.0199976 0.0199956 0.0199933 0.0199909 0.0199884 0.0199857 0.0199831 0.0199806 0.0199782 0.0199761 0.0199745 0.0199735 0.0199733 0.019974 0.0199759 0.0199793 0.0199845 0.0199917 0.0200014 0.020014 0.0200298 0.0200495 0.0200735 0.0201023 0.0201367 0.0201772 0.0202245 0.0202792 0.020342 0.0204135 0.0204942 0.0205848 0.0206854 0.0207962 0.0209167 0.0210458 0.021182 0.0213246 0.0214745 0.0216322 0.0217976 0.0219693 0.0221452 0.0223225 0.0224978 0.0226681 0.0228309 0.0229864 0.0231386 0.0232927 0.0234392 0.0235416 0.0235549 0.0234528 0.0231641 0.022676 0.0219925 0.0210917 0.0199619 0.0186306 0.017174 0.0156366 0.0139544 0.0119658 0.00956056 0.00683227 0.00433637 0.00225262 0 0 0 0 0 0 0 0 0 0 0 0 0 0 0 0 0 0 0 0 0 0 0 0 0 0 0 0 0 0 0 0 0 0 0 0 0 0 0 0 0 0 0 0 0 0 0 0 0 0 0 0 0 0 0 0 0 0 0 0 0 0 0 0 0 0 0 0 0 0 0 0 0 0 0 0 0 0 0 0 0 0 0 0 0 0 0 0 0 0 0 0 0 0 0 0 0 0 0 0 0 0 0 0 0 0 0 0 0 0 0 0 0 0 0 0 0 0 0 0 0 0 0 0 0 0 0 0 0 0 0 0 0 0 0 0 0 0 0 0 0 0 0 0 0 0 0 0 0 0 0 0 0 0 0 0 0 0 0 0 0 0 0 0 0 0 0 0 0 0 0 0 0 0 0 0 0 0 0 0 0 0 0 0 0 0 0 0 0 0 0 0 0 0 0 0 0 0 0 0 0 0 0 0 0 0 0 0 0 0 0 0 0 0 0 0 0 0 0 0 0 0 0 0 0 0 0 0 0 0 0 0 0 0 0 0 0 0 0 0 0 0 0 0 0 0 0 0 0 0 0 0 0 0 0 0 0 0 0 0 0 0 0 0 0 0 0 0 0 0 0 0 0 0 0 0 0 0 0 0 0 0 0 0 0 0 0 0 0 0 0 0 0 0 0 0 0 0 0 0 0 0 0 0 0 0 0 0 0 0 0 0 0 0 0 0 0 0 0 0 0 0 0 0 0 0 0 0 0 0 0 0 0 0 0 0 0 0 0 0 0 0 0 0 0 0 0 0 0 0 0 0 0 0 0 0 0 0 0 0 0 0 0 0 0 0 0 0 0 0 0 0 0 0 0 0 0 0 0 0 0 0 0 0 0 0 0 0 0 0 0 0 0 0 0 0 0 0 0 0 0 0 0 0 0 0 0 0 0 0 0 0 0 0 0 0 0 0 0 0 0 0 0 0 0 0 0 0 0 0 0 0 0 0 0 0 0 0 0 0 0 0 0 0 0 0 0 0 0 0 0 0 0 0 0 0 0 0 0 0 0 0 0 0 0 0 0 0 0 0 0 0 0 0 0 0 0 0 0 0 0 0 0 0 0 0 0 0 0 0 0 0 0 0 0 0 0 0 0 0 0 0 0 0 0 -0.0128898 -0.00671737 -2.1684e-19 
0.02 0.02 0.02 0.02 0.02 0.02 0.0200001 0.0200001 0.0200001 0.0200001 0.0200002 0.0200002 0.0200002 0.0200003 0.0200004 0.0200004 0.0200005 0.0200006 0.0200008 0.0200009 0.0200011 0.0200013 0.0200015 0.0200017 0.020002 0.0200023 0.0200026 0.0200029 0.0200033 0.0200037 0.020004 0.0200044 0.0200047 0.020005 0.0200052 0.0200053 0.0200054 0.0200053 0.020005 0.0200046 0.020004 0.0200031 0.0200021 0.0200008 0.0199993 0.0199975 0.0199955 0.0199934 0.0199911 0.0199886 0.0199862 0.0199837 0.0199813 0.0199791 0.0199772 0.0199757 0.0199748 0.0199746 0.0199754 0.0199774 0.0199807 0.0199858 0.0199928 0.0200022 0.0200144 0.0200296 0.0200486 0.0200716 0.0200994 0.0201324 0.0201712 0.0202166 0.0202691 0.0203293 0.0203979 0.0204754 0.0205623 0.0206589 0.0207653 0.020881 0.0210051 0.0211366 0.0212745 0.0214191 0.0215707 0.0217292 0.0218935 0.0220617 0.0222315 0.0223996 0.0225632 0.0227207 0.0228736 0.0230275 0.0231861 0.0233375 0.023441 0.0234399 0.0232946 0.0229838 0.0224937 0.021811 0.0209164 0.0198 0.0184882 0.017039 0.0154822 0.013788 0.0118627 0.00945229 0.00642207 0.00265449 0.000393194 0 0 0 0 0 0 0 0 0 0 0 0 0 0 0 0 0 0 0 0 0 0 0 0 0 0 0 0 0 0 0 0 0 0 0 0 0 0 0 0 0 0 0 0 0 0 0 0 0 0 0 0 0 0 0 0 0 0 0 0 0 0 0 0 0 0 0 0 0 0 0 0 0 0 0 0 0 0 0 0 0 0 0 0 0 0 0 0 0 0 0 0 0 0 0 0 0 0 0 0 0 0 0 0 0 0 0 0 0 0 0 0 0 0 0 0 0 0 0 0 0 0 0 0 0 0 0 0 0 0 0 0 0 0 0 0 0 0 0 0 0 0 0 0 0 0 0 0 0 0 0 0 0 0 0 0 0 0 0 0 0 0 0 0 0 0 0 0 0 0 0 0 0 0 0 0 0 0 0 0 0 0 0 0 0 0 0 0 0 0 0 0 0 0 0 0 0 0 0 0 0 0 0 0 0 0 0 0 0 0 0 0 0 0 0 0 0 0 0 0 0 0 0 0 0 0 0 0 0 0 0 0 0 0 0 0 0 0 0 0 0 0 0 0 0 0 0 0 0 0 0 0 0 0 0 0 0 0 0 0 0 0 0 0 0 0 0 0 0 0 0 0 0 0 0 0 0 0 0 0 0 0 0 0 0 0 0 0 0 0 0 0 0 0 0 0 0 0 0 0 0 0 0 0 0 0 0 0 0 0 0 0 0 0 0 0 0 0 0 0 0 0 0 0 0 0 0 0 0 0 0 0 0 0 0 0 0 0 0 0 0 0 0 0 0 0 0 0 0 0 0 0 0 0 0 0 0 0 0 0 0 0 0 0 0 0 0 0 0 0 0 0 0 0 0 0 0 0 0 0 0 0 0 0 0 0 0 0 0 0 0 0 0 0 0 0 0 0 0 0 0 0 0 0 0 0 0 0 0 0 0 0 0 0 0 0 0 0 0 0 0 0 0 0 0 0 0 0 0 0 0 0 0 0 0 0 0 0 0 0 0 0 0 0 0 0 0 0 0 0 0 0 0 0 0 0 0 0 0 0 0 0 0 0 0 0 0 0 0 0 0 0 0 0 0 0 0 0 0 0 0 0 0 0 0 0 0 0 0 0 0 0 0 0 0 0 0 0 0 0 0 0 0 -0.0278781 -0.0237723 -0.0169445 -0.00922436 6.50521e-19 
0.02 0.02 0.02 0.02 0.02 0.02 0.02 0.0200001 0.0200001 0.0200001 0.0200001 0.0200002 0.0200002 0.0200003 0.0200003 0.0200004 0.0200005 0.0200006 0.0200007 0.0200008 0.020001 0.0200011 0.0200013 0.0200016 0.0200018 0.0200021 0.0200024 0.0200027 0.020003 0.0200034 0.0200037 0.0200041 0.0200044 0.0200046 0.0200048 0.020005 0.020005 0.0200049 0.0200047 0.0200043 0.0200037 0.0200029 0.0200019 0.0200007 0.0199993 0.0199977 0.0199959 0.0199939 0.0199917 0.0199895 0.0199872 0.0199849 0.0199827 0.0199808 0.0199791 0.0199778 0.0199771 0.0199771 0.0199781 0.0199801 0.0199835 0.0199885 0.0199954 0.0200045 0.0200162 0.0200309 0.0200491 0.0200711 0.0200976 0.0201291 0.0201661 0.0202093 0.0202592 0.0203164 0.0203816 0.0204553 0.0205379 0.0206296 0.0207307 0.0208407 0.0209588 0.0210843 0.0212162 0.0213543 0.0214988 0.0216494 0.0218053 0.0219649 0.022126 0.0222856 0.0224412 0.0225915 0.0227382 0.0228855 0.0230341 0.0231694 0.0232544 0.0232394 0.0230842 0.0227694 0.022283 0.0216081 0.0207268 0.0196318 0.0183403 0.0168977 0.0153341 0.0136419 0.0117539 0.00951085 0.00656844 0.00274228 6.82262e-05 -0.000935208 0 0 0 0 0 0 0 0 0 0 0 0 0 0 0 0 0 0 0 0 0 0 0 0 0 0 0 0 0 0 0 0 0 0 0 0 0 0 0 0 0 0 0 0 0 0 0 0 0 0 0 0 0 0 0 0 0 0 0 0 0 0 0 0 0 0 0 0 0 0 0 0 0 0 0 0 0 0 0 0 0 0 0 0 0 0 0 0 0 0 0 0 0 0 0 0 0 0 0 0 0 0 0 0 0 0 0 0 0 0 0 0 0 0 0 0 0 0 0 0 0 0 0 0 0 0 0 0 0 0 0 0 0 0 0 0 0 0 0 0 0 0 0 0 0 0 0 0 0 0 0 0 0 0 0 0 0 0 0 0 0 0 0 0 0 0 0 0 0 0 0 0 0 0 0 0 0 0 0 0 0 0 0 0 0 0 0 0 0 0 0 0 0 0 0 0 0 0 0 0 0 0 0 0 0 0 0 0 0 0 0 0 0 0 0 0 0 0 0 0 0 0 0 0 0 0 0 0 0 0 0 0 0 0 0 0 0 0 0 0 0 0 0 0 0 0 0 0 0 0 0 0 0 0 0 0 0 0 0 0 0 0 0 0 0 0 0 0 0 0 0 0 0 0 0 0 0 0 0 0 0 0 0 0 0 0 0 0 0 0 0 0 0 0 0 0 0 0 0 0 0 0 0 0 0 0 0 0 0 0 0 0 0 0 0 0 0 0 0 0 0 0 0 0 0 0 0 0 0 0 0 0 0 0 0 0 0 0 0 0 0 0 0 0 0 0 0 0 0 0 0 0 0 0 0 0 0 0 -0.0526051 -0.0556789 -0.0562951 -0.0561012 -0.0555314 -0.0547441 -0.053811 -0.0527957 -0.0517451 -0.0507091 -0.0497221 -0.0488098 -0.0480122 -0.0499196 0 0 0 0 0 0 0 0 0 0 0 0 0 0 0 0 0 0 0 -0.0414838 -0.0447715 -0.044398 -0.0455085 -0.0453518 -0.0455287 -0.0458711 -0.0475619 -0.0528939 -0.0484975 0 0 0 0 0 0 0 0 0 0 0 0 0 0 0 0 0 0 0 0 0 0 -0.0366298 -0.0404227 -0.041729 -0.0422899 -0.0424846 -0.04253 -0.0425374 -0.0425382 -0.0425353 -0.0425274 -0.0425134 -0.0424927 -0.0424648 -0.0424295 -0.0423869 -0.0423372 -0.042281 -0.0422186 -0.0421511 -0.0420794 -0.042005 -0.0419296 -0.0418549 -0.0417828 -0.0417147 -0.0416521 -0.0415961 -0.0415474 -0.0415065 -0.0414737 -0.041449 -0.0414327 -0.0414249 -0.0414262 -0.041437 -0.0414583 -0.0414907 -0.041535 -0.0415917 -0.041661 -0.0417428 -0.0418365 -0.0419414 -0.0420562 -0.0421794 -0.0423096 -0.0424447 -0.0425828 -0.0427219 -0.04286 -0.042995 -0.043125 -0.0432481 -0.0433626 -0.0434671 -0.0435602 -0.0436408 -0.0437082 -0.0437615 -0.0438004 -0.0438245 -0.0438339 -0.0438285 -0.0438086 -0.0437742 -0.0437258 -0.0436634 -0.0435869 -0.0434957 -0.0433881 -0.0432599 -0.0431037 -0.0429046 -0.0426336 -0.0422227 -0.0414406 -0.0398521 -0.0378007 -0.0350378 -0.0307957 -0.0253447 -0.0186627 -0.0105795 4.33681e-19 
0.02 0.02 0.02 0.02 0.02 0.02 0.02 0.0200001 0.0200001 0.0200001 0.0200001 0.0200002 0.0200002 0.0200002 0.0200003 0.0200003 0.0200004 0.0200005 0.0200006 0.0200007 0.0200009 0.020001 0.0200012 0.0200014 0.0200016 0.0200019 0.0200022 0.0200025 0.0200028 0.0200031 0.0200035 0.0200038 0.0200041 0.0200043 0.0200045 0.0200047 0.0200047 0.0200047 0.0200045 0.0200041 0.0200036 0.0200029 0.020002 0.0200009 0.0199997 0.0199982 0.0199965 0.0199947 0.0199928 0.0199908 0.0199888 0.0199868 0.019985 0.0199833 0.0199819 0.0199809 0.0199805 0.0199808 0.019982 0.0199842 0.0199877 0.0199927 0.0199995 0.0200084 0.0200197 0.0200338 0.0200511 0.0200721 0.0200973 0.0201271 0.020162 0.0202028 0.0202498 0.0203038 0.0203651 0.0204344 0.0205121 0.0205984 0.0206934 0.0207968 0.0209081 0.0210265 0.0211512 0.0212818 0.0214182 0.0215601 0.0217067 0.0218568 0.022008 0.022158 0.0223042 0.0224453 0.0225821 0.0227167 0.0228468 0.0229578 0.0230184 0.0229881 0.0228315 0.0225245 0.0220494 0.0213886 0.020527 0.0194589 0.0181949 0.0167664 0.0152128 0.0135163 0.0116349 0.00950895 0.00664204 0.00303223 5.37992e-05 -0.00229467 0 0 0 0 0 0 0 0 0 0 0 0 0 0 0 0 0 0 0 0 0 0 0 0 0 0 0 0 0 0 0 0 0 0 0 0 0 0 0 0 0 0 0 0 0 0 0 0 0 0 0 0 0 0 0 0 0 0 0 0 0 0 0 0 0 0 0 0 0 0 0 0 0 0 0 0 0 0 0 0 0 0 0 0 0 0 0 0 0 0 0 0 0 0 0 0 0 0 0 0 0 0 0 0 0 0 0 0 0 0 0 0 0 0 0 0 0 0 0 0 0 0 0 0 0 0 0 0 0 0 0 0 0 0 0 0 0 0 0 0 0 0 0 0 0 0 0 0 0 0 0 0 0 0 0 0 0 0 0 0 0 0 0 0 0 0 0 0 0 0 0 0 0 0 0 0 0 0 0 0 0 0 0 0 0 0 0 0 0 0 0 0 0 0 0 0 0 0 0 0 0 0 0 0 0 0 0 0 0 0 0 0 0 0 0 0 0 0 0 0 0 0 0 0 0 0 0 0 0 0 0 0 0 0 0 0 0 0 0 0 0 0 0 0 0 0 0 0 0 0 0 0 0 0 0 0 0 0 0 0 0 0 0 0 0 0 0 0 0 0 0 0 0 0 0 0 0 0 0 0 0 0 0 0 0 0 0 0 0 0 0 0 0 0 0 0 0 0 0 0 0 0 0 0 0 0 0 0 0 0 0 0 0 0 0 0 0 0 0 0 0 0 0 0 0 0 0 0 0 0 0 0 0 0 0 0 0 0 0 0 0 0 0 0 0 0 0 0 0 0 0 -0.0490785 -0.0537451 -0.056287 -0.05728 -0.0580227 -0.0582815 -0.0578754 -0.0567618 -0.056643 -0.0564884 -0.0560893 -0.0554811 -0.0547011 -0.053786 -0.052796 -0.0517703 -0.0507519 -0.0497812 -0.0488799 -0.0480854 -0.0479533 -0.0481141 -0.047869 -0.0470973 -0.0461081 -0.0454305 -0.0449928 -0.0447435 -0.0445816 -0.0444863 -0.044448 -0.044441 -0.0444593 -0.0445043 -0.0445773 -0.044676 -0.0447986 -0.0449415 -0.0450997 -0.0451363 -0.0446124 -0.0448836 -0.0449456 -0.0451111 -0.0453587 -0.0458817 -0.0460682 -0.047182 -0.0483436 -0.0478838 -0.0466052 -0.0461915 -0.0461089 -0.0459936 -0.0458408 -0.0456458 -0.0454068 -0.0451254 -0.0448083 -0.0444679 -0.0441199 -0.0437803 -0.0434633 -0.04318 -0.0429382 -0.0427379 -0.0425665 -0.042399 -0.0421976 -0.0418897 -0.0413788 -0.040725 -0.0404365 -0.0410407 -0.0418155 -0.0422954 -0.0424989 -0.0425547 -0.0425639 -0.0425635 -0.0425591 -0.0425494 -0.0425336 -0.0425109 -0.0424808 -0.0424433 -0.0423985 -0.0423466 -0.042288 -0.0422235 -0.0421538 -0.0420801 -0.0420038 -0.0419267 -0.0418505 -0.0417771 -0.0417081 -0.0416449 -0.0415886 -0.0415398 -0.041499 -0.0414665 -0.0414424 -0.0414268 -0.04142 -0.0414222 -0.041434 -0.0414561 -0.0414891 -0.0415337 -0.0415904 -0.0416592 -0.0417402 -0.0418329 -0.0419364 -0.0420497 -0.0421715 -0.0423002 -0.0424339 -0.0425709 -0.0427091 -0.0428465 -0.0429812 -0.0431111 -0.0432344 -0.0433495 -0.0434546 -0.0435486 -0.0436303 -0.0436987 -0.0437532 -0.0437934 -0.0438188 -0.0438296 -0.0438256 -0.0438072 -0.0437745 -0.043728 -0.0436679 -0.0435941 -0.0435061 -0.0434021 -0.0432782 -0.0431264 -0.0429303 -0.0426525 -0.0421957 -0.0413779 -0.0399863 -0.0379939 -0.0351638 -0.0311686 -0.0260311 -0.0196348 -0.0113967 -2.38524e-18 
0.02 0.02 0.02 0.02 0.02 0.02 0.02 0.02 0.0200001 0.0200001 0.0200001 0.0200001 0.0200002 0.0200002 0.0200002 0.0200003 0.0200004 0.0200004 0.0200005 0.0200006 0.0200008 0.0200009 0.0200011 0.0200013 0.0200015 0.0200017 0.020002 0.0200023 0.0200026 0.0200029 0.0200032 0.0200035 0.0200038 0.0200041 0.0200043 0.0200045 0.0200045 0.0200045 0.0200044 0.0200041 0.0200037 0.0200031 0.0200023 0.0200014 0.0200003 0.019999 0.0199976 0.0199961 0.0199945 0.0199928 0.0199911 0.0199894 0.0199879 0.0199867 0.0199857 0.0199851 0.0199851 0.0199857 0.0199871 0.0199896 0.0199933 0.0199984 0.0200051 0.0200138 0.0200248 0.0200383 0.0200548 0.0200747 0.0200985 0.0201265 0.0201593 0.0201974 0.0202414 0.0202917 0.0203489 0.0204134 0.0204856 0.0205659 0.0206543 0.0207505 0.0208542 0.0209646 0.0210811 0.0212032 0.0213307 0.021463 0.0215996 0.0217392 0.0218798 0.0220191 0.0221546 0.0222847 0.0224091 0.0225277 0.0226365 0.0227221 0.0227589 0.0227141 0.0225558 0.0222579 0.0217989 0.0211597 0.020326 0.0192909 0.0180603 0.0166559 0.0151061 0.013408 0.011506 0.00936918 0.00674442 0.00302385 -0.00143382 -0.00547166 -0.0102931 0 0 0 0 0 0 0 0 0 0 0 0 0 0 0 0 0 0 0 0 0 0 0 0 0 0 0 0 0 0 0 0 0 0 0 0 0 0 0 0 0 0 0 0 0 0 0 0 0 0 0 0 0 0 0 0 0 0 0 0 0 0 0 0 0 0 0 0 0 0 0 0 0 0 0 0 0 0 0 0 0 0 0 0 0 0 0 0 0 0 0 0 0 0 0 0 0 0 0 0 0 0 0 0 0 0 0 0 0 0 0 0 0 0 0 0 0 0 0 0 0 0 0 0 0 0 0 0 0 0 0 0 0 0 0 0 0 0 0 0 0 0 0 0 0 0 0 0 0 0 0 0 0 0 0 0 0 0 0 0 0 0 0 0 0 0 0 0 0 0 0 0 0 0 0 0 0 0 0 0 0 0 0 0 0 0 0 0 0 0 0 0 0 0 0 0 0 0 0 0 0 0 0 0 0 0 0 0 0 0 0 0 0 0 0 0 0 0 0 0 0 0 0 0 0 0 0 0 0 0 0 0 0 0 0 0 0 0 0 0 0 0 0 0 0 0 0 0 0 0 0 0 0 0 0 0 0 0 0 0 0 0 0 0 0 0 0 0 0 0 0 0 0 0 0 0 0 0 0 0 0 0 0 0 0 0 0 0 0 0 0 0 0 0 0 0 0 0 0 0 0 0 0 0 0 0 0 0 0 0 0 0 0 0 0 0 0 0 0 0 0 0 0 0 0 0 0 0 0 0 0 0 0 0 0 0 0 0 0 0 0 0 0 0 0 0 0 0 -0.0456734 -0.0488876 -0.0520078 -0.0540944 -0.0558162 -0.0570873 -0.0577388 -0.0578667 -0.0575015 -0.0569214 -0.0566312 -0.0563472 -0.0559041 -0.0553043 -0.0545524 -0.0536792 -0.0527285 -0.0517482 -0.0507653 -0.0498257 -0.0489471 -0.0481683 -0.0476676 -0.0476344 -0.0476793 -0.0471679 -0.0463389 -0.045684 -0.0452104 -0.0449168 -0.0447401 -0.044636 -0.0445942 -0.0445873 -0.0446072 -0.0446509 -0.0447201 -0.0448122 -0.0449247 -0.0450547 -0.0451973 -0.0453152 -0.0452779 -0.0449601 -0.0452291 -0.0451268 -0.0454565 -0.0460174 -0.0464561 -0.0469792 -0.0471203 -0.0468239 -0.0463918 -0.0461262 -0.0460437 -0.0459291 -0.0457766 -0.0455813 -0.0453418 -0.0450613 -0.0447486 -0.0444168 -0.0440809 -0.0437552 -0.0434513 -0.0431773 -0.0429365 -0.0427233 -0.0425226 -0.0423089 -0.0420468 -0.0417151 -0.0413412 -0.0410512 -0.041134 -0.0415686 -0.042044 -0.0423741 -0.0425306 -0.0425777 -0.042584 -0.0425801 -0.0425721 -0.0425589 -0.0425395 -0.0425134 -0.0424801 -0.0424396 -0.0423918 -0.0423372 -0.0422761 -0.0422092 -0.0421373 -0.0420616 -0.0419836 -0.041905 -0.0418278 -0.0417538 -0.0416848 -0.0416222 -0.041567 -0.0415199 -0.0414813 -0.0414514 -0.0414304 -0.0414181 -0.0414149 -0.0414207 -0.0414361 -0.0414616 -0.0414975 -0.0415444 -0.0416027 -0.0416725 -0.0417536 -0.0418456 -0.0419479 -0.0420595 -0.0421792 -0.0423055 -0.0424369 -0.0425715 -0.0427075 -0.042843 -0.0429759 -0.0431045 -0.0432268 -0.0433411 -0.0434458 -0.0435397 -0.0436215 -0.0436902 -0.0437452 -0.0437859 -0.0438121 -0.0438236 -0.0438206 -0.0438032 -0.0437716 -0.0437263 -0.0436673 -0.0435947 -0.0435079 -0.0434049 -0.0432814 -0.043128 -0.0429231 -0.0426162 -0.042107 -0.0412528 -0.039902 -0.0379331 -0.035151 -0.0313685 -0.0265013 -0.020285 -0.0119285 2.1684e-19 
0.02 0.02 0.02 0.02 0.02 0.02 0.02 0.02 0.0200001 0.0200001 0.0200001 0.0200001 0.0200001 0.0200002 0.0200002 0.0200003 0.0200003 0.0200004 0.0200005 0.0200006 0.0200007 0.0200008 0.020001 0.0200011 0.0200013 0.0200016 0.0200018 0.0200021 0.0200024 0.0200027 0.020003 0.0200033 0.0200036 0.0200039 0.0200041 0.0200043 0.0200044 0.0200045 0.0200044 0.0200042 0.0200039 0.0200035 0.0200029 0.0200021 0.0200013 0.0200002 0.0199991 0.0199979 0.0199966 0.0199953 0.019994 0.0199928 0.0199917 0.0199909 0.0199903 0.0199902 0.0199906 0.0199917 0.0199935 0.0199963 0.0200003 0.0200055 0.0200123 0.0200208 0.0200315 0.0200445 0.0200602 0.020079 0.0201013 0.0201275 0.0201581 0.0201935 0.0202341 0.0202806 0.0203334 0.0203928 0.0204593 0.0205331 0.0206143 0.0207028 0.0207983 0.0209 0.0210075 0.0211203 0.021238 0.0213601 0.0214859 0.0216143 0.0217434 0.021871 0.0219948 0.0221126 0.0222231 0.0223247 0.0224126 0.0224749 0.0224908 0.0224333 0.0222736 0.0219854 0.0215455 0.0209339 0.0201354 0.0191416 0.0179528 0.016581 0.0150429 0.0133301 0.0113828 0.00916014 0.00665436 0.00311703 -0.00159617 -0.00558127 -0.0150205 0 0 0 0 0 0 0 0 0 0 0 0 0 0 0 0 0 0 0 0 0 0 0 0 0 0 0 0 0 0 0 0 0 0 0 0 0 0 0 0 0 0 0 0 0 0 0 0 0 0 0 0 0 0 0 0 0 0 0 0 0 0 0 0 0 0 0 0 0 0 0 0 0 0 0 0 0 0 0 0 0 0 0 0 0 0 0 0 0 0 0 0 0 0 0 0 0 0 0 0 0 0 0 0 0 0 0 0 0 0 0 0 0 0 0 0 0 0 0 0 0 0 0 0 0 0 0 0 0 0 0 0 0 0 0 0 0 0 0 0 0 0 0 0 0 0 0 0 0 0 0 0 0 0 0 0 0 0 0 0 0 0 0 0 0 0 0 0 0 0 0 0 0 0 0 0 0 0 0 0 0 0 0 0 0 0 0 0 0 0 0 0 0 0 0 0 0 0 0 0 0 0 0 -0.0545675 -0.0601263 -0.0628675 -0.0647205 -0.0729629 -0.0669543 0 0 0 0 0 0 0 0 0 0 0 0 0 0 0 0 0 0 0 0 0 0 0 0 0 0 0 0 0 0 0 0 0 0 0 0 0 0 0 0 0 0 0 0 0 0 0 0 0 0 0 0 0 0 0 0 0 0 0 0 0 0 0 0 0 0 0 0 0 0 0 0 0 0 0 0 0 0 0 0 0 0 0 0 0 0 0 0 0 0 0 0 0 0 0 0 0 0 0 0 0 0 0 0 0 0 0 0 0 0 0 -0.0593712 -0.0663662 -0.0853431 0 0 0 0 0 0 0 0 0 0 0 0 0 0 0 0 0 0 0 0 0 0 0 -0.0539296 -0.0525405 -0.0508597 -0.0516692 -0.0531495 -0.0544109 -0.0554655 -0.0564077 -0.0569355 -0.0570065 -0.0567666 -0.0564952 -0.0562282 -0.0559454 -0.0555353 -0.0549854 -0.0542894 -0.0534829 -0.0525939 -0.0516741 -0.0507451 -0.0498502 -0.0490073 -0.0482546 -0.047681 -0.0473991 -0.0473386 -0.047062 -0.046501 -0.04593 -0.0454795 -0.0451635 -0.044963 -0.044845 -0.0447894 -0.04477 -0.0447805 -0.0448161 -0.0448756 -0.044957 -0.0450567 -0.0451718 -0.0452977 -0.0454214 -0.0455094 -0.0454957 -0.045422 -0.045573 -0.0457122 -0.0460793 -0.0464397 -0.0466082 -0.0465227 -0.0463118 -0.0461571 -0.046059 -0.0459758 -0.0458607 -0.0457069 -0.0455097 -0.0452683 -0.0449877 -0.044678 -0.0443525 -0.0440259 -0.043711 -0.0434171 -0.0431486 -0.0429042 -0.0426756 -0.0424502 -0.0422124 -0.0419498 -0.0416905 -0.0414965 -0.041449 -0.041643 -0.0419739 -0.0422838 -0.0424871 -0.0425822 -0.0426087 -0.0426075 -0.0425977 -0.0425838 -0.0425649 -0.04254 -0.0425086 -0.0424704 -0.0424252 -0.0423733 -0.0423149 -0.0422503 -0.0421802 -0.0421055 -0.0420274 -0.0419473 -0.0418672 -0.041789 -0.0417147 -0.0416461 -0.0415846 -0.0415313 -0.0414868 -0.0414516 -0.0414259 -0.0414095 -0.0414025 -0.0414047 -0.0414162 -0.0414372 -0.0414678 -0.0415084 -0.0415593 -0.0416205 -0.0416921 -0.0417741 -0.0418659 -0.0419671 -0.0420767 -0.0421939 -0.0423173 -0.0424454 -0.0425769 -0.0427098 -0.0428424 -0.0429729 -0.0430993 -0.0432199 -0.0433329 -0.0434368 -0.0435301 -0.0436117 -0.0436805 -0.0437358 -0.0437772 -0.0438041 -0.0438167 -0.0438148 -0.0437986 -0.0437684 -0.0437244 -0.0436669 -0.0435957 -0.0435099 -0.0434075 -0.0432832 -0.0431249 -0.0429047 -0.042566 -0.0420155 -0.0411336 -0.0397894 -0.0378472 -0.0351487 -0.0315466 -0.0268806 -0.0207642 -0.0122983 -8.67362e-19 