# vtk DataFile Version 2.0
iteration 1107
ASCII

DATASET STRUCTURED_POINTS
DIMENSIONS 621 64 1
ORIGIN 0 0 0
SPACING 0.00161031 0.00161031 0.00161031

POINT_DATA 39744
SCALARS P float 1
LOOKUP_TABLE default
0 0 0 0 0 0 0 0 0 0 0 0 0 0 0 0 0 0 0 0 0 0 0 0 0 0 0 0 0 0 0 0 0 0 0 0 0 0 0 0 0 0 0 0 0 0 0 0 0 0 0 0 0 0 0 0 0 0 0 0 0 0 0 0 0 0 0 0 0 0 0 0 0 0 0 0 0 0 0 0 0 0 0 0 0 0 0 0 0 0 0 0 0 0 0 0 0 0 0 0 0 0 0 0 0 0 0 0 0 0 0 0 0 0 0 0 0 0 0 0 0 0 0 0 0 0 0 0 0 0 0 0 0 0 0 0 0 0 0 0 0 0 0 0 0 0 0 0 0 0 0 0 0 0 0 0 0 0 0 0 0 0 0 0 0 0 0 0 0 0 0 0 0 0 0 0 0 0 0 0 0 0 0 0 0 0 0 0 0 0 0 0 0 0 0 0 0 0 0 0 0 0 0 0 0 0 0 0 0 0 0 0 0 0 0 0 0 0 0 0 0 0 0 0 0 0 0 0 0 0 0 0 0 0 0 0 0 0 0 0 0 0 0 0 0 0 0 0 0 0 0 0 0 0 0 0 0 0 0 0 0 0 0 0 0 0 0 0 0 0 0 0 0 0 0 0 0 0 0 0 0 0 0 0 0 0 0 0 0 0 0 0 0 0 0 0 0 0 0 0 0 0 0 0 0 0 0 0 0 0 0 0 0 0 0 0 0 0 0 0 0 0 0 0 0 0 0 0 0 0 0 0 0 0 0 0 0 0 0 0 0 0 0 0 0 0 0 0 0 0 0 0 0 0 0 0 0 0 0 0 0 0 0 0 0 0 0 0 0 0 0 0 0 0 0 0 0 0 0 0 0 0 0 0 0 0 0 0 0 0 0 0 0 0 0 0 0 0 0 0 0 0 0 0 0 0 0 0 0 0 0 0 0 0 0 0 0 0 0 0 0 0 0 0 0 0 0 0 0 0 0 0 0 0 0 0 0 0 0 0 0 0 0 0 0 0 0 0 0 0 0 0 0 0 0 0 0 0 0 0 0 0 0 0 0 0 0 0 0 0 0 0 0 0 0 0 0 0 0 0 0 0 0 0 0 0 0 0 0 0 0 0 0 0 0 0 0 0 0 0 0 0 0 0 0 0 0 0 0 0 0 0 0 0 0 0 0 0 0 0 0 0 0 0 0 0 0 0 0 0 0 0 0 0 0 0 0 0 0 0 0 0 0 0 0 0 0 0 0 0 0 0 0 0 0 0 0 0 0 0 0 0 0 0 0 0 0 0 0 0 0 0 0 0 0 0 0 0 0 0 0 0 0 0 0 0 0 0 0 0 0 0 0 0 0 0 0 0 0 0 0 0 0 0 0 0 0 0 0 0 0 0 0 0 0 0 0 0 0 0 0 
0.02 0.02 0.02 0.02 0.02 0.02 0.02 0.02 0.02 0.02 0.02 0.02 0.02 0.02 0.02 0.02 0.02 0.02 0.02 0.02 0.02 0.02 0.02 0.02 0.02 0.02 0.02 0.02 0.02 0.02 0.02 0.02 0.02 0.02 0.02 0.02 0.02 0.02 0.02 0.02 0.02 0.02 0.02 0.02 0.02 0.02 0.02 0.02 0.02 0.02 0.02 0.02 0.02 0.0200001 0.0200001 0.0200001 0.0200001 0.0200001 0.0200001 0.0200001 0.0200001 0.0200001 0.0200001 0.0200002 0.0200002 0.0200002 0.0200002 0.0200002 0.0200003 0.0200003 0.0200003 0.0200004 0.0200004 0.0200004 0.0200005 0.0200005 0.0200006 0.0200007 0.0200007 0.0200008 0.0200009 0.0200009 0.020001 0.0200011 0.0200012 0.0200013 0.0200014 0.0200015 0.0200017 0.0200018 0.0200019 0.0200021 0.0200022 0.0200024 0.0200025 0.0200027 0.0200028 0.020003 0.0200031 0.0200033 0.0200034 0.0200036 0.0200037 0.0200038 0.0200038 0.0200039 0.0200039 0.0200039 0.0200038 0.0200037 0.0200035 0.0200032 0.0200029 0.0200024 0.0200019 0.0200012 0.0200005 0.0199996 0.0199985 0.0199973 0.0199959 0.0199943 0.0199926 0.0199906 0.0199884 0.019986 0.0199834 0.0199805 0.0199773 0.0199739 0.0199703 0.0199664 0.0199623 0.019958 0.0199535 0.0199487 0.0199438 0.0199388 0.0199336 0.0199284 0.0199231 0.0199179 0.0199127 0.0199076 0.0199027 0.019898 0.0198935 0.0198894 0.0198857 0.0198824 0.0198796 0.0198773 0.0198755 0.0198743 0.0198738 0.0198738 0.0198745 0.0198759 0.0198778 0.0198804 0.0198835 0.019887 0.0198899 0.019891 0.0198938 0.0198979 0.0199027 0.0199081 0.0199139 0.0199201 0.0199266 0.0199334 0.0199406 0.019948 0.0199558 0.0199639 0.0199724 0.0199814 0.019991 0.0200011 0.020012 0.0200237 0.0200364 0.0200503 0.0200654 0.020082 0.0201002 0.0201202 0.0201422 0.0201664 0.020193 0.0202221 0.0202539 0.0202886 0.0203261 0.0203667 0.0204104 0.0204571 0.0205068 0.0205595 0.0206149 0.0206729 0.0207329 0.0207944 0.0208568 0.0209189 0.0209796 0.0210366 0.0210889 0.0211373 0.0211941 0.0212561 0.0213163 0.0213744 0.0214296 0.0214814 0.0215291 0.0215721 0.0216097 0.0216413 0.0216659 0.0216829 0.0216914 0.0216904 0.0216791 0.0216564 0.0216211 0.0215722 0.0215082 0.0214279 0.0213294 0.0212109 0.0210698 0.0209036 0.0207092 0.0204838 0.0202256 0.0199378 0.019623 0.019279 0.0189617 0.0187235 0.0193753 0.0216492 0.0192833 0 0 0 0 0 0 0 0 0 0 0 0 0 0 0 0 0 0 0 0 0 0 0 0 0 0 0 0 0 0 0 0 0 0 0 0 0 0 0 0 0 0 0 0 0 0 0 0 0 0 0 0 0 0 0 0 0 0 0 0 0 0 0 0 0 0 0 0 0 0 0 0 0 0 0 0 0 0 0 0 0 0 0 0 0 0 0 0 0 0 0 0 0 0 0 0 0 0 0 0 0 0 0 0 0 0 0 0 0 0 0 0 0 0 0 0 0 0 0 0 0 0 0 0 0 0 0 0 0 0 0 0 0 0 0 0 0 0 0 0 0 0 0 0 0 0 0 0 0 0 0 0 0 0 0 0 0 0 0 0 0 0 0 0 0 0 0 0 0 0 0 0 0 0 0 0 0 0 0 0 0 0 0 0 0 0 0 0 0 0 0 0 0 0 0 0 0 0 0 0 0 0 0 0 0 0 0 0 0 0 0 0 0 0 0 0 0 0 0 0 0 0 0 0 0 0 0 0 0 0 0 0 0 0 0 0 0 0 0 0 0 0 0 0 0 0 0 0 0 0 0 0 0 0 0 0 0 0 0 0 0 0 0 0 0 0 0 0 0 0 0 0 0 0 0 0 0 0 0 0 0 0 0 0 0 0 0 0 0 0 0 0 0 0 0 0 0 0 0 0 0 0 0 0 0 0 0 0 0 0 0 0 0 0 0 0 0 0 0 0 0 0 0 0 0 0 0 0 0 0 0 0 0 0 0 0 0 0 0 0 0 0 0 0 0 0 0 0 0 0 0 0 0 0 0 0 0 0 0 0 0 0 0 0 0 0 0 0 0 0 0 0 0 0 0 0 
0.02 0.02 0.02 0.02 0.02 0.02 0.02 0.02 0.02 0.02 0.02 0.02 0.02 0.02 0.02 0.02 0.02 0.02 0.02 0.02 0.02 0.02 0.02 0.02 0.02 0.02 0.02 0.02 0.02 0.02 0.02 0.02 0.02 0.02 0.02 0.02 0.02 0.02 0.02 0.02 0.02 0.02 0.02 0.02 0.02 0.02 0.02 0.02 0.02 0.02 0.02 0.02 0.02 0.02 0.0200001 0.0200001 0.0200001 0.0200001 0.0200001 0.0200001 0.0200001 0.0200001 0.0200001 0.0200002 0.0200002 0.0200002 0.0200002 0.0200002 0.0200003 0.0200003 0.0200003 0.0200004 0.0200004 0.0200004 0.0200005 0.0200005 0.0200006 0.0200006 0.0200007 0.0200008 0.0200008 0.0200009 0.020001 0.0200011 0.0200012 0.0200013 0.0200014 0.0200015 0.0200016 0.0200017 0.0200019 0.020002 0.0200022 0.0200023 0.0200024 0.0200026 0.0200027 0.0200029 0.020003 0.0200032 0.0200033 0.0200034 0.0200035 0.0200036 0.0200037 0.0200037 0.0200037 0.0200037 0.0200036 0.0200035 0.0200032 0.020003 0.0200026 0.0200022 0.0200016 0.020001 0.0200002 0.0199993 0.0199982 0.019997 0.0199956 0.019994 0.0199922 0.0199903 0.0199881 0.0199856 0.019983 0.0199801 0.019977 0.0199736 0.0199699 0.0199661 0.019962 0.0199576 0.0199531 0.0199484 0.0199435 0.0199384 0.0199333 0.0199281 0.0199228 0.0199176 0.0199124 0.0199073 0.0199024 0.0198977 0.0198933 0.0198892 0.0198855 0.0198822 0.0198794 0.0198771 0.0198754 0.0198742 0.0198737 0.0198738 0.0198745 0.0198759 0.0198779 0.0198806 0.0198838 0.0198873 0.0198907 0.0198934 0.0198968 0.019901 0.019906 0.0199116 0.0199176 0.0199241 0.0199309 0.019938 0.0199454 0.0199531 0.0199612 0.0199696 0.0199784 0.0199877 0.0199975 0.0200078 0.0200189 0.0200308 0.0200436 0.0200575 0.0200727 0.0200892 0.0201073 0.0201272 0.020149 0.0201729 0.0201991 0.0202278 0.020259 0.020293 0.0203298 0.0203696 0.0204123 0.0204579 0.0205064 0.0205577 0.0206115 0.0206675 0.0207252 0.0207841 0.0208436 0.0209027 0.0209602 0.0210165 0.0210706 0.0211258 0.0211857 0.0212469 0.0213065 0.0213638 0.0214183 0.0214695 0.0215166 0.021559 0.0215961 0.021627 0.0216512 0.0216677 0.0216757 0.0216744 0.0216627 0.0216398 0.0216044 0.0215554 0.0214915 0.0214114 0.0213133 0.0211952 0.0210547 0.0208891 0.0206957 0.0204719 0.0202158 0.0199349 0.0196385 0.0193147 0.019095 0.0186498 0.0187857 0.019494 0.0188661 0.0179243 0.0172012 0.016597 0.0160075 0.0153993 0.0147622 0.0140735 0.0132921 0.0123788 0.0113444 0.0103804 0.0094328 0.00884526 0.0094556 0 0 0 0 0 0 0 0 0 0 0 0 0 0 0 0 0 0 0 0 0 0 0 0 0 0 0 0 0 0 0 0 0 0 0 0 0 0 0 0 0 0 0 0 0 0 0 0 0 0 0 0 0 0 0 0 0 0 0 0 0 0 0 0 0 0 0 0 0 0 0 0 0 0 0 0 0 0 0 0 0 0 0 0 0 0 0 0 0 0 0 0 0 0 0 0 0 0 0 0 0 0 0 0 0 0 0 0 0 0 0 0 0 0 0 0 0 0 0 0 0 0 0 0 0 0 0 0 0 0 0 0 0 0 0 0 0 0 0 0 0 0 0 0 0 0 0 0 0 0 0 0 0 0 0 0 0 0 0 0 0 0 0 0 0 0 0 0 0 0 0 0 0 0 0 0 0 0 0 0 0 0 0 0 0 0 0 0 0 0 0 0 0 0 0 0 0 0 0 0 0 0 0 0 0 0 0 0 0 0 0 0 0 0 0 0 0 0 0 0 0 0 0 0 0 0 0 0 0 0 0 0 0 0 0 0 0 0 0 0 0 0 0 0 0 0 0 0 0 0 0 0 0 0 0 0 0 0 0 0 0 0 0 0 0 0 0 0 0 0 0 0 0 0 0 0 0 0 0 0 0 0 0 0 0 0 0 0 0 0 0 0 0 0 0 0 0 0 0 0 0 0 0 0 0 0 0 0 0 0 0 0 0 0 0 0 0 0 0 0 0 0 0 0 0 0 0 0 0 0 0 0 0 0 0 0 0 0 0 0 0 0 0 0 0 0 0 0 0 0 0 0 0 0 0 0 0 0 0 0 0 0 
0.02 0.02 0.02 0.02 0.02 0.02 0.02 0.02 0.02 0.02 0.02 0.02 0.02 0.02 0.02 0.02 0.02 0.02 0.02 0.02 0.02 0.02 0.02 0.02 0.02 0.02 0.02 0.02 0.02 0.02 0.02 0.02 0.02 0.02 0.02 0.02 0.02 0.02 0.02 0.02 0.02 0.02 0.02 0.02 0.02 0.02 0.02 0.02 0.02 0.02 0.02 0.02 0.02 0.02 0.0200001 0.0200001 0.0200001 0.0200001 0.0200001 0.0200001 0.0200001 0.0200001 0.0200001 0.0200002 0.0200002 0.0200002 0.0200002 0.0200002 0.0200003 0.0200003 0.0200003 0.0200004 0.0200004 0.0200004 0.0200005 0.0200005 0.0200006 0.0200006 0.0200007 0.0200007 0.0200008 0.0200009 0.020001 0.0200011 0.0200011 0.0200012 0.0200013 0.0200014 0.0200016 0.0200017 0.0200018 0.0200019 0.0200021 0.0200022 0.0200023 0.0200025 0.0200026 0.0200028 0.0200029 0.020003 0.0200032 0.0200033 0.0200034 0.0200034 0.0200035 0.0200035 0.0200035 0.0200034 0.0200033 0.0200032 0.0200029 0.0200026 0.0200023 0.0200018 0.0200012 0.0200005 0.0199997 0.0199988 0.0199977 0.0199965 0.019995 0.0199934 0.0199916 0.0199896 0.0199874 0.019985 0.0199823 0.0199794 0.0199762 0.0199728 0.0199692 0.0199653 0.0199612 0.0199568 0.0199523 0.0199475 0.0199426 0.0199375 0.0199324 0.0199272 0.0199219 0.0199167 0.0199115 0.0199064 0.0199015 0.0198969 0.0198925 0.0198884 0.0198847 0.0198815 0.0198787 0.0198765 0.0198749 0.0198738 0.0198734 0.0198736 0.0198744 0.0198759 0.0198781 0.0198809 0.0198843 0.0198881 0.0198919 0.0198956 0.0198996 0.0199042 0.0199095 0.0199153 0.0199217 0.0199285 0.0199356 0.0199432 0.019951 0.0199592 0.0199677 0.0199766 0.0199859 0.0199956 0.0200058 0.0200166 0.0200281 0.0200404 0.0200535 0.0200677 0.0200831 0.0200999 0.0201181 0.0201381 0.0201599 0.0201837 0.0202097 0.0202381 0.020269 0.0203025 0.0203387 0.0203777 0.0204195 0.0204641 0.0205113 0.0205609 0.0206129 0.0206666 0.0207218 0.0207779 0.0208344 0.0208909 0.0209471 0.021003 0.0210598 0.0211188 0.0211793 0.0212395 0.021298 0.0213543 0.0214078 0.0214578 0.0215038 0.0215451 0.021581 0.0216108 0.0216337 0.021649 0.0216558 0.0216533 0.0216405 0.0216164 0.02158 0.0215301 0.0214655 0.0213846 0.0212859 0.0211674 0.0210268 0.0208612 0.0206685 0.020447 0.0201968 0.0199293 0.0196701 0.0194107 0.0191868 0.0190645 0.0187168 0.0188386 0.0184491 0.0177886 0.0171694 0.0165648 0.0159766 0.0153563 0.0147006 0.0139843 0.0131868 0.012299 0.0113582 0.0104458 0.00947875 0.00867907 0.00818888 0.0070098 0.00564498 0.00423046 0.00277967 0.00130599 -0.000255752 -0.00145167 0 0 0 0 0 0 0 0 0 0 0 0 0 0 0 0 0 0 0 0 0 0 0 0 0 0 0 0 0 0 0 0 0 0 0 0 0 0 0 0 0 0 0 0 0 0 0 0 0 0 0 0 0 0 0 0 0 0 0 0 0 0 0 0 0 0 0 0 0 0 0 0 0 0 0 0 0 0 0 0 0 0 0 0 0 0 0 0 0 0 0 0 0 0 0 0 0 0 0 0 0 0 0 0 0 0 0 0 0 0 0 0 0 0 0 0 0 0 0 0 0 0 0 0 0 0 0 0 0 0 0 0 0 0 0 0 0 0 0 0 0 0 0 0 0 0 0 0 0 0 0 0 0 0 0 0 0 0 0 0 0 0 0 0 0 0 0 0 0 0 0 0 0 0 0 0 0 0 0 0 0 0 0 0 0 0 0 0 0 0 0 0 0 0 0 0 0 0 0 0 0 0 0 0 0 0 0 0 0 0 0 0 0 0 0 0 0 0 0 0 0 0 0 0 0 0 0 0 0 0 0 0 0 0 0 0 0 0 0 0 0 0 0 0 0 0 0 0 0 0 0 0 0 0 0 0 0 0 0 0 0 0 0 0 0 0 0 0 0 0 0 0 0 0 0 0 0 0 0 0 0 0 0 0 0 0 0 0 0 0 0 0 0 0 0 0 0 0 0 0 0 0 0 0 0 0 0 0 0 0 0 0 0 0 0 0 0 0 0 0 0 0 0 0 0 0 0 0 0 0 0 0 0 0 0 0 0 0 0 0 0 0 0 0 0 0 0 0 0 0 0 0 0 0 -2.1684e-19 
0.02 0.02 0.02 0.02 0.02 0.02 0.02 0.02 0.02 0.02 0.02 0.02 0.02 0.02 0.02 0.02 0.02 0.02 0.02 0.02 0.02 0.02 0.02 0.02 0.02 0.02 0.02 0.02 0.02 0.02 0.02 0.02 0.02 0.02 0.02 0.02 0.02 0.02 0.02 0.02 0.02 0.02 0.02 0.02 0.02 0.02 0.02 0.02 0.02 0.02 0.02 0.02 0.02 0.02 0.0200001 0.0200001 0.0200001 0.0200001 0.0200001 0.0200001 0.0200001 0.0200001 0.0200001 0.0200001 0.0200002 0.0200002 0.0200002 0.0200002 0.0200003 0.0200003 0.0200003 0.0200003 0.0200004 0.0200004 0.0200005 0.0200005 0.0200005 0.0200006 0.0200006 0.0200007 0.0200008 0.0200008 0.0200009 0.020001 0.0200011 0.0200012 0.0200013 0.0200014 0.0200015 0.0200016 0.0200017 0.0200018 0.020002 0.0200021 0.0200022 0.0200023 0.0200025 0.0200026 0.0200027 0.0200028 0.0200029 0.020003 0.0200031 0.0200031 0.0200032 0.0200032 0.0200031 0.020003 0.0200029 0.0200027 0.0200025 0.0200022 0.0200017 0.0200012 0.0200006 0.0199999 0.0199991 0.0199981 0.019997 0.0199957 0.0199943 0.0199926 0.0199908 0.0199888 0.0199865 0.019984 0.0199813 0.0199784 0.0199752 0.0199717 0.0199681 0.0199641 0.01996 0.0199556 0.019951 0.0199463 0.0199413 0.0199363 0.0199311 0.0199259 0.0199206 0.0199154 0.0199102 0.0199052 0.0199003 0.0198957 0.0198913 0.0198873 0.0198837 0.0198806 0.0198779 0.0198758 0.0198742 0.0198733 0.019873 0.0198734 0.0198744 0.0198762 0.0198786 0.0198816 0.0198853 0.0198894 0.0198938 0.0198983 0.019903 0.0199082 0.0199139 0.0199202 0.0199271 0.0199343 0.019942 0.0199501 0.0199585 0.0199673 0.0199764 0.0199859 0.0199958 0.0200061 0.0200169 0.0200283 0.0200403 0.0200531 0.0200667 0.0200813 0.0200971 0.0201141 0.0201325 0.0201526 0.0201743 0.0201981 0.0202239 0.0202519 0.0202822 0.0203151 0.0203504 0.0203884 0.0204289 0.020472 0.0205174 0.020565 0.0206146 0.0206658 0.0207183 0.0207719 0.0208261 0.0208811 0.0209369 0.0209937 0.0210521 0.0211116 0.0211713 0.02123 0.0212871 0.0213418 0.0213937 0.0214422 0.0214865 0.0215261 0.0215603 0.0215883 0.0216094 0.0216229 0.0216279 0.0216236 0.0216091 0.0215833 0.0215453 0.0214939 0.0214279 0.0213459 0.0212462 0.0211269 0.0209858 0.0208204 0.0206292 0.0204129 0.020175 0.0199267 0.0196996 0.0194964 0.0192952 0.0191871 0.0189933 0.0186579 0.0182104 0.0176538 0.0171162 0.01653 0.015944 0.015317 0.0146456 0.0139126 0.0131131 0.0122529 0.0113668 0.0105125 0.00963547 0.00869714 0.00791228 0.00677558 0.0055266 0.00415778 0.00275863 0.00133101 -8.14032e-05 -0.00168264 -0.00341601 -0.00529093 -0.0071693 -0.0093849 -0.0121567 0 0 0 0 0 0 0 0 0 0 0 0 0 0 0 0 0 0 0 0 0 0 0 0 0 0 0 0 0 0 0 0 0 0 0 0 0 0 0 0 0 0 0 0 0 0 0 0 0 0 0 0 0 0 0 0 0 0 0 0 0 0 0 0 0 0 0 0 0 0 0 0 0 0 0 0 0 0 0 0 0 0 0 0 0 0 0 0 0 0 0 0 0 0 0 0 0 0 0 0 0 0 0 0 0 0 0 0 0 0 0 0 0 0 0 0 0 0 0 0 0 0 0 0 0 0 0 0 0 0 0 0 0 0 0 0 0 0 0 0 0 0 0 0 0 0 0 0 0 0 0 0 0 0 0 0 0 0 0 0 0 0 0 0 0 0 0 0 0 0 0 0 0 0 0 0 0 0 0 0 0 0 0 0 0 0 0 0 0 0 0 0 0 0 0 0 0 0 0 0 0 0 0 0 0 0 0 0 0 0 0 0 0 0 0 0 0 0 0 0 0 0 0 0 0 0 0 0 0 0 0 0 0 0 0 0 0 0 0 0 0 0 0 0 0 0 0 0 0 0 0 0 0 0 0 0 0 0 0 0 0 0 0 0 0 0 0 0 0 0 0 0 0 0 0 0 0 0 0 0 0 0 0 0 0 0 0 0 0 0 0 0 0 0 0 0 0 0 0 0 0 0 0 0 0 0 0 0 0 0 0 0 0 0 0 0 0 0 0 0 0 0 0 0 0 0 0 0 0 0 0 0 0 0 0 0 0 0 0 0 0 0 0 0 0 0 0 0 0 -4.33681e-19 
0.02 0.02 0.02 0.02 0.02 0.02 0.02 0.02 0.02 0.02 0.02 0.02 0.02 0.02 0.02 0.02 0.02 0.02 0.02 0.02 0.02 0.02 0.02 0.02 0.02 0.02 0.02 0.02 0.02 0.02 0.02 0.02 0.02 0.02 0.02 0.02 0.02 0.02 0.02 0.02 0.02 0.02 0.02 0.02 0.02 0.02 0.02 0.02 0.02 0.02 0.02 0.02 0.02 0.02 0.0200001 0.0200001 0.0200001 0.0200001 0.0200001 0.0200001 0.0200001 0.0200001 0.0200001 0.0200001 0.0200002 0.0200002 0.0200002 0.0200002 0.0200002 0.0200003 0.0200003 0.0200003 0.0200004 0.0200004 0.0200004 0.0200005 0.0200005 0.0200006 0.0200006 0.0200007 0.0200007 0.0200008 0.0200009 0.0200009 0.020001 0.0200011 0.0200012 0.0200013 0.0200014 0.0200015 0.0200016 0.0200017 0.0200018 0.0200019 0.020002 0.0200021 0.0200023 0.0200024 0.0200025 0.0200026 0.0200026 0.0200027 0.0200027 0.0200028 0.0200028 0.0200027 0.0200027 0.0200026 0.0200024 0.0200022 0.0200019 0.0200015 0.0200011 0.0200005 0.0199999 0.0199991 0.0199983 0.0199972 0.0199961 0.0199947 0.0199932 0.0199916 0.0199897 0.0199876 0.0199853 0.0199828 0.01998 0.019977 0.0199738 0.0199703 0.0199666 0.0199627 0.0199585 0.0199541 0.0199495 0.0199447 0.0199398 0.0199347 0.0199295 0.0199243 0.0199191 0.0199138 0.0199087 0.0199037 0.0198989 0.0198943 0.01989 0.0198861 0.0198826 0.0198795 0.019877 0.019875 0.0198736 0.0198729 0.0198728 0.0198734 0.0198747 0.0198766 0.0198793 0.0198827 0.0198867 0.0198913 0.0198963 0.0199016 0.0199072 0.0199131 0.0199195 0.0199264 0.0199338 0.0199418 0.0199501 0.0199589 0.019968 0.0199775 0.0199874 0.0199976 0.0200082 0.0200193 0.0200308 0.0200428 0.0200555 0.0200688 0.020083 0.020098 0.0201142 0.0201315 0.0201501 0.0201702 0.0201919 0.0202154 0.0202408 0.0202682 0.0202979 0.0203297 0.0203639 0.0204005 0.0204394 0.0204805 0.0205238 0.0205691 0.0206162 0.0206649 0.0207151 0.0207667 0.0208195 0.0208738 0.0209293 0.0209863 0.0210444 0.0211028 0.0211607 0.0212175 0.0212726 0.0213253 0.0213752 0.0214215 0.0214637 0.0215011 0.021533 0.0215587 0.0215775 0.0215886 0.0215912 0.0215846 0.0215677 0.0215398 0.0214997 0.0214463 0.0213785 0.021295 0.021194 0.0210737 0.0209323 0.0207679 0.0205801 0.020372 0.0201509 0.0199268 0.0197205 0.0195444 0.0193626 0.0191235 0.0188849 0.0185246 0.0180814 0.0175729 0.0170495 0.0164843 0.0158975 0.0152668 0.014586 0.0138485 0.0130591 0.0122319 0.0113843 0.010543 0.00969821 0.00881613 0.00778591 0.00663316 0.00540785 0.00408601 0.00271177 0.00128497 -0.000194875 -0.00178722 -0.00348681 -0.00525263 -0.00712314 -0.00874479 -0.0113426 -0.0135319 -0.0158092 -0.0180111 -0.0226915 0 0 0 0 0 0 0 0 0 0 0 0 0 0 0 0 0 0 0 0 0 0 0 0 0 0 0 0 0 0 0 0 0 0 0 0 0 0 0 0 0 0 0 0 0 0 0 0 0 0 0 0 0 0 0 0 0 0 0 0 0 0 0 0 0 0 0 0 0 0 0 0 0 0 0 0 0 0 0 0 0 0 0 0 0 0 0 0 0 0 0 0 0 0 0 0 0 0 0 0 0 0 0 0 0 0 0 0 0 0 0 0 0 0 0 0 0 0 0 0 0 0 0 0 0 0 0 0 0 0 0 0 0 0 0 0 0 0 0 0 0 0 0 0 0 0 0 0 0 0 0 0 0 0 0 0 0 0 0 0 0 0 0 0 0 0 0 0 0 0 0 0 0 0 0 0 0 0 0 0 0 0 0 0 0 0 0 0 0 0 0 0 0 0 0 0 0 0 0 0 0 0 0 0 0 0 0 0 0 0 0 0 0 0 0 0 0 0 0 0 0 0 0 0 0 0 0 0 0 0 0 0 0 0 0 0 0 0 0 0 0 0 0 0 0 0 0 0 0 0 0 0 0 0 0 0 0 0 0 0 0 0 0 0 0 0 0 0 0 0 0 0 0 0 0 0 0 0 0 0 0 0 0 0 0 0 0 0 0 0 0 0 0 0 0 0 0 0 0 0 0 0 0 0 0 0 0 0 0 0 0 0 0 0 0 0 0 0 0 0 0 0 0 0 0 0 0 0 0 0 0 0 0 0 0 0 0 0 0 0 0 0 0 0 -0.00520196 -6.50521e-19 
0.02 0.02 0.02 0.02 0.02 0.02 0.02 0.02 0.02 0.02 0.02 0.02 0.02 0.02 0.02 0.02 0.02 0.02 0.02 0.02 0.02 0.02 0.02 0.02 0.02 0.02 0.02 0.02 0.02 0.02 0.02 0.02 0.02 0.02 0.02 0.02 0.02 0.02 0.02 0.02 0.02 0.02 0.02 0.02 0.02 0.02 0.02 0.02 0.02 0.02 0.02 0.02 0.02 0.02 0.02 0.0200001 0.0200001 0.0200001 0.0200001 0.0200001 0.0200001 0.0200001 0.0200001 0.0200001 0.0200001 0.0200002 0.0200002 0.0200002 0.0200002 0.0200002 0.0200003 0.0200003 0.0200003 0.0200004 0.0200004 0.0200004 0.0200005 0.0200005 0.0200006 0.0200006 0.0200007 0.0200007 0.0200008 0.0200009 0.0200009 0.020001 0.0200011 0.0200012 0.0200012 0.0200013 0.0200014 0.0200015 0.0200016 0.0200017 0.0200018 0.0200019 0.020002 0.0200021 0.0200021 0.0200022 0.0200023 0.0200023 0.0200023 0.0200023 0.0200023 0.0200022 0.0200021 0.020002 0.0200017 0.0200015 0.0200011 0.0200007 0.0200002 0.0199997 0.019999 0.0199982 0.0199972 0.0199961 0.0199949 0.0199935 0.019992 0.0199903 0.0199883 0.0199862 0.0199838 0.0199813 0.0199785 0.0199754 0.0199721 0.0199686 0.0199649 0.0199609 0.0199567 0.0199522 0.0199476 0.0199428 0.0199379 0.0199328 0.0199276 0.0199224 0.0199172 0.019912 0.0199069 0.0199019 0.0198972 0.0198927 0.0198885 0.0198847 0.0198813 0.0198783 0.019876 0.0198742 0.019873 0.0198725 0.0198726 0.0198735 0.0198751 0.0198774 0.0198804 0.0198842 0.0198887 0.0198938 0.0198994 0.0199055 0.0199119 0.0199187 0.0199259 0.0199337 0.0199419 0.0199506 0.0199597 0.0199693 0.0199793 0.0199896 0.0200003 0.0200114 0.0200229 0.0200347 0.0200471 0.0200599 0.0200732 0.0200872 0.0201019 0.0201175 0.020134 0.0201516 0.0201703 0.0201904 0.0202119 0.0202351 0.0202599 0.0202867 0.0203153 0.020346 0.0203788 0.0204137 0.0204507 0.0204897 0.0205308 0.0205738 0.0206186 0.0206652 0.0207136 0.0207636 0.0208153 0.0208686 0.0209233 0.0209792 0.0210355 0.0210918 0.0211475 0.0212019 0.0212545 0.0213047 0.021352 0.0213957 0.0214352 0.0214699 0.021499 0.0215218 0.0215377 0.021546 0.0215457 0.0215362 0.0215166 0.021486 0.0214433 0.0213876 0.0213176 0.0212322 0.0211297 0.0210085 0.0208671 0.0207049 0.0205227 0.0203253 0.0201213 0.0199192 0.019725 0.0195449 0.0193508 0.0191184 0.0188019 0.0184121 0.0179739 0.0174913 0.0169773 0.0164256 0.0158382 0.0152062 0.0145238 0.0137921 0.0130188 0.0122198 0.0113999 0.0105565 0.00968662 0.00874139 0.00769741 0.00654932 0.00532028 0.00401432 0.00265345 0.00121271 -0.000288212 -0.00189529 -0.00356713 -0.00533385 -0.00722456 -0.00924455 -0.0113044 -0.0134271 -0.0155451 -0.0178111 -0.0206245 -0.0235325 -0.0257174 -0.0281401 -0.0316075 -0.0375112 0 0 0 0 0 0 0 0 0 0 0 0 0 0 0 0 0 0 0 0 0 0 0 0 0 0 0 0 0 0 0 0 0 0 0 0 0 0 0 0 0 0 0 0 0 0 0 0 0 0 0 0 0 0 0 0 0 0 0 0 0 0 0 0 0 0 0 0 0 0 0 0 0 0 0 0 0 0 0 0 0 0 0 0 0 0 0 0 0 0 0 0 0 0 0 0 0 0 0 0 0 0 0 0 0 0 0 0 0 0 0 0 0 0 0 0 0 0 0 0 0 0 0 0 0 0 0 0 0 0 0 0 0 0 0 0 0 0 0 0 0 0 0 0 0 0 0 0 0 0 0 0 0 0 0 0 0 0 0 0 0 0 0 0 0 0 0 0 0 0 0 0 0 0 0 0 0 0 0 0 0 0 0 0 0 0 0 0 0 0 0 0 0 0 0 0 0 0 0 0 0 0 0 0 0 0 0 0 0 0 0 0 0 0 0 0 0 0 0 0 0 0 0 0 0 0 0 0 0 0 0 0 0 0 0 0 0 0 0 0 0 0 0 0 0 0 0 0 0 0 0 0 0 0 0 0 0 0 0 0 0 0 0 0 0 0 0 0 0 0 0 0 0 0 0 0 0 0 0 0 0 0 0 0 0 0 0 0 0 0 0 0 0 0 0 0 0 0 0 0 0 0 0 0 0 0 0 0 0 0 0 0 0 0 0 0 0 0 0 0 0 0 0 0 0 0 0 0 0 0 0 0 0 0 0 0 0 0 -0.0173522 -0.00902391 -1.30104e-18 
0.02 0.02 0.02 0.02 0.02 0.02 0.02 0.02 0.02 0.02 0.02 0.02 0.02 0.02 0.02 0.02 0.02 0.02 0.02 0.02 0.02 0.02 0.02 0.02 0.02 0.02 0.02 0.02 0.02 0.02 0.02 0.02 0.02 0.02 0.02 0.02 0.02 0.02 0.02 0.02 0.02 0.02 0.02 0.02 0.02 0.02 0.02 0.02 0.02 0.02 0.02 0.02 0.02 0.02 0.02 0.0200001 0.0200001 0.0200001 0.0200001 0.0200001 0.0200001 0.0200001 0.0200001 0.0200001 0.0200001 0.0200002 0.0200002 0.0200002 0.0200002 0.0200002 0.0200002 0.0200003 0.0200003 0.0200003 0.0200004 0.0200004 0.0200004 0.0200005 0.0200005 0.0200005 0.0200006 0.0200006 0.0200007 0.0200008 0.0200008 0.0200009 0.0200009 0.020001 0.0200011 0.0200012 0.0200012 0.0200013 0.0200014 0.0200015 0.0200015 0.0200016 0.0200017 0.0200017 0.0200018 0.0200018 0.0200018 0.0200018 0.0200018 0.0200018 0.0200017 0.0200016 0.0200014 0.0200012 0.020001 0.0200007 0.0200003 0.0199998 0.0199993 0.0199986 0.0199979 0.019997 0.019996 0.0199949 0.0199936 0.0199921 0.0199905 0.0199887 0.0199867 0.0199845 0.0199821 0.0199795 0.0199766 0.0199735 0.0199702 0.0199666 0.0199628 0.0199588 0.0199545 0.0199501 0.0199454 0.0199406 0.0199357 0.0199306 0.0199254 0.0199202 0.019915 0.0199099 0.0199049 0.0199 0.0198953 0.0198909 0.0198868 0.0198831 0.0198798 0.0198771 0.0198749 0.0198733 0.0198723 0.0198721 0.0198725 0.0198737 0.0198756 0.0198783 0.0198818 0.019886 0.019891 0.0198967 0.0199029 0.0199098 0.0199171 0.0199248 0.019933 0.0199417 0.0199509 0.0199605 0.0199706 0.0199811 0.019992 0.0200033 0.020015 0.020027 0.0200394 0.0200522 0.0200653 0.020079 0.0200931 0.0201078 0.0201231 0.0201392 0.020156 0.0201739 0.0201927 0.0202127 0.020234 0.0202567 0.0202809 0.0203068 0.0203344 0.0203637 0.020395 0.0204281 0.0204632 0.0205003 0.0205393 0.0205802 0.0206231 0.0206678 0.0207145 0.020763 0.0208132 0.0208648 0.0209177 0.0209713 0.0210252 0.0210788 0.0211317 0.0211832 0.0212329 0.0212802 0.0213244 0.021365 0.0214013 0.0214327 0.0214585 0.021478 0.0214905 0.0214953 0.0214917 0.0214789 0.021456 0.0214223 0.0213767 0.0213182 0.0212457 0.0211581 0.021054 0.0209319 0.0207912 0.0206322 0.0204573 0.0202713 0.0200818 0.0198941 0.0197057 0.0195065 0.0192883 0.0190188 0.0186914 0.0183078 0.0178781 0.0174072 0.0169 0.0163556 0.0157696 0.0151391 0.0144615 0.0137417 0.012986 0.0122044 0.0113972 0.0105533 0.00964683 0.00867685 0.00761636 0.00646697 0.00523981 0.00394121 0.00257707 0.00113469 -0.000393393 -0.00200399 -0.00369591 -0.00546957 -0.00737852 -0.0093519 -0.0114283 -0.0134969 -0.0156387 -0.0180305 -0.0205101 -0.02307 -0.0253284 -0.0277867 -0.0295322 -0.0338764 -0.0363278 -0.0378748 -0.040148 -0.0460605 -0.046095 0 0 0 0 0 0 0 0 0 0 0 0 0 0 0 0 0 0 0 0 0 0 0 0 0 0 0 0 0 0 0 0 0 0 0 0 0 0 0 0 0 0 0 0 0 0 0 0 0 0 0 0 0 0 0 0 0 0 0 0 0 0 0 0 0 0 0 0 0 0 0 0 0 0 0 0 0 0 0 0 0 0 0 0 0 0 0 0 0 0 0 0 0 0 0 0 0 0 0 0 0 0 0 0 0 0 0 0 0 0 0 0 0 0 0 0 0 0 0 0 0 0 0 0 0 0 0 0 0 0 0 0 0 0 0 0 0 0 0 0 0 0 0 0 0 0 0 0 0 0 0 0 0 0 0 0 0 0 0 0 0 0 0 0 0 0 0 0 0 0 0 0 0 0 0 0 0 0 0 0 0 0 0 0 0 0 0 0 0 0 0 0 0 0 0 0 0 0 0 0 0 0 0 0 0 0 0 0 0 0 0 0 0 0 0 0 0 0 0 0 0 0 0 0 0 0 0 0 0 0 0 0 0 0 0 0 0 0 0 0 0 0 0 0 0 0 0 0 0 0 0 0 0 0 0 0 0 0 0 0 0 0 0 0 0 0 0 0 0 0 0 0 0 0 0 0 0 0 0 0 0 0 0 0 0 0 0 0 0 0 0 0 0 0 0 0 0 0 0 0 0 0 0 0 0 0 0 0 0 0 0 0 0 0 0 0 0 0 0 0 0 0 0 0 0 0 0 0 0 0 -0.0386784 -0.0362017 -0.0296126 -0.0211603 -0.0116203 0 
0.02 0.02 0.02 0.02 0.02 0.02 0.02 0.02 0.02 0.02 0.02 0.02 0.02 0.02 0.02 0.02 0.02 0.02 0.02 0.02 0.02 0.02 0.02 0.02 0.02 0.02 0.02 0.02 0.02 0.02 0.02 0.02 0.02 0.02 0.02 0.02 0.02 0.02 0.02 0.02 0.02 0.02 0.02 0.02 0.02 0.02 0.02 0.02 0.02 0.02 0.02 0.02 0.02 0.02 0.02 0.02 0.0200001 0.0200001 0.0200001 0.0200001 0.0200001 0.0200001 0.0200001 0.0200001 0.0200001 0.0200001 0.0200001 0.0200002 0.0200002 0.0200002 0.0200002 0.0200002 0.0200003 0.0200003 0.0200003 0.0200003 0.0200004 0.0200004 0.0200004 0.0200005 0.0200005 0.0200006 0.0200006 0.0200006 0.0200007 0.0200007 0.0200008 0.0200008 0.0200009 0.020001 0.020001 0.0200011 0.0200011 0.0200012 0.0200012 0.0200013 0.0200013 0.0200013 0.0200013 0.0200013 0.0200013 0.0200013 0.0200012 0.0200011 0.020001 0.0200009 0.0200007 0.0200004 0.0200001 0.0199997 0.0199993 0.0199988 0.0199981 0.0199974 0.0199966 0.0199957 0.0199946 0.0199934 0.019992 0.0199905 0.0199888 0.019987 0.0199849 0.0199826 0.0199802 0.0199775 0.0199745 0.0199714 0.019968 0.0199644 0.0199605 0.0199564 0.0199522 0.0199477 0.019943 0.0199382 0.0199332 0.0199281 0.019923 0.0199178 0.0199127 0.0199076 0.0199026 0.0198978 0.0198932 0.0198889 0.0198849 0.0198814 0.0198783 0.0198757 0.0198738 0.0198724 0.0198717 0.0198717 0.0198725 0.019874 0.0198764 0.0198795 0.0198834 0.0198881 0.0198936 0.0198999 0.0199069 0.0199145 0.0199227 0.0199314 0.0199406 0.0199503 0.0199605 0.0199712 0.0199823 0.0199938 0.0200058 0.0200181 0.0200308 0.0200439 0.0200573 0.020071 0.0200851 0.0200997 0.0201146 0.02013 0.020146 0.0201625 0.0201798 0.0201979 0.0202168 0.0202367 0.0202578 0.02028 0.0203036 0.0203285 0.020355 0.0203831 0.0204129 0.0204444 0.0204778 0.020513 0.0205501 0.0205891 0.0206301 0.020673 0.0207178 0.0207643 0.0208123 0.0208616 0.0209119 0.0209627 0.0210135 0.021064 0.0211136 0.0211618 0.0212081 0.0212519 0.0212926 0.0213295 0.0213622 0.0213898 0.0214118 0.0214275 0.0214362 0.0214372 0.0214297 0.0214131 0.0213866 0.0213493 0.0213004 0.0212388 0.0211635 0.0210734 0.0209676 0.020845 0.0207055 0.0205504 0.0203829 0.0202075 0.0200284 0.0198475 0.0196592 0.019451 0.0192063 0.01892 0.0185856 0.018204 0.01778 0.0173172 0.0168166 0.016277 0.0156947 0.015069 0.0144 0.0136933 0.0129527 0.0121813 0.0113759 0.0105231 0.00960793 0.00861458 0.00754048 0.00638938 0.0051648 0.00386612 0.00249449 0.00104227 -0.000494092 -0.0021189 -0.00383082 -0.00562639 -0.00750738 -0.00950469 -0.0115613 -0.0136826 -0.0158801 -0.0181158 -0.0206405 -0.0229791 -0.0253033 -0.0279148 -0.0306624 -0.0331723 -0.0354233 -0.0373936 -0.0398471 -0.043394 -0.0461061 -0.0480653 -0.0494577 -0.0500285 -0.0508512 -0.0533542 -0.0627955 -0.0599363 0 0 0 0 0 0 0 0 0 0 0 0 0 0 0 0 0 0 0 0 0 0 0 0 0 0 0 0 0 0 0 0 0 0 0 0 0 0 0 0 0 0 0 0 0 0 0 0 0 0 0 0 0 0 0 0 0 0 0 0 0 0 0 0 0 0 0 0 0 0 0 0 0 0 0 0 0 0 0 0 0 0 0 0 0 0 0 0 0 0 0 0 0 0 0 0 0 0 0 0 0 0 0 0 0 0 0 0 0 0 0 0 0 0 0 0 0 0 0 0 0 0 0 0 0 0 0 0 0 0 0 0 0 0 0 0 0 0 0 0 0 0 0 0 0 0 0 0 0 0 0 0 0 0 0 0 0 0 0 0 0 0 0 0 0 0 0 0 0 0 0 0 0 0 0 0 0 0 0 0 0 0 0 0 0 -0.0496987 -0.0537324 -0.0550973 -0.0556144 -0.0557733 -0.0557353 -0.0555439 -0.0552678 -0.0549612 -0.0546579 -0.0543816 -0.054126 -0.053904 -0.0537221 -0.0535831 -0.0534813 -0.0534094 -0.0533574 -0.0533141 -0.053272 -0.0532263 -0.0531757 -0.0531212 -0.0530649 -0.0530095 -0.0529575 -0.0529112 -0.0528726 -0.0528433 -0.0528242 -0.0528165 -0.0528205 -0.0528368 -0.0528653 -0.0529056 -0.0529569 -0.0530175 -0.0530851 -0.0531559 -0.0532253 -0.0532879 -0.053338 -0.0533709 -0.0533844 -0.0533782 -0.0533581 -0.0533404 -0.0533259 -0.0533576 -0.0536198 -0.0541839 -0.0556536 -0.0628359 -0.0587049 0 0 0 0 0 0 0 0 0 0 0 0 0 0 0 0 0 0 0 0 0 0 0 0 0 0 0 0 0 0 0 0 0 0 0 0 0 0 0 0 0 0 0 0 0 0 0 0 0 0 0 0 0 0 0 0 0 0 0 0 0 0 0 0 0 0 0 0 0 0 -0.0514547 -0.0537649 -0.0544315 -0.0547471 -0.0547859 -0.0547002 -0.0545386 -0.0543112 -0.0540048 -0.0535598 -0.0526986 -0.0509578 -0.0491329 -0.0466837 -0.042708 -0.037671 -0.0310446 -0.0229595 -0.0130865 -1.30104e-18 