# vtk DataFile Version 2.0
iteration 2322
ASCII

DATASET STRUCTURED_POINTS
DIMENSIONS 621 64 1
ORIGIN 0 0 0
SPACING 0.00161031 0.00161031 0.00161031

POINT_DATA 39744
SCALARS P float 1
LOOKUP_TABLE default
0 0 0 0 0 0 0 0 0 0 0 0 0 0 0 0 0 0 0 0 0 0 0 0 0 0 0 0 0 0 0 0 0 0 0 0 0 0 0 0 0 0 0 0 0 0 0 0 0 0 0 0 0 0 0 0 0 0 0 0 0 0 0 0 0 0 0 0 0 0 0 0 0 0 0 0 0 0 0 0 0 0 0 0 0 0 0 0 0 0 0 0 0 0 0 0 0 0 0 0 0 0 0 0 0 0 0 0 0 0 0 0 0 0 0 0 0 0 0 0 0 0 0 0 0 0 0 0 0 0 0 0 0 0 0 0 0 0 0 0 0 0 0 0 0 0 0 0 0 0 0 0 0 0 0 0 0 0 0 0 0 0 0 0 0 0 0 0 0 0 0 0 0 0 0 0 0 0 0 0 0 0 0 0 0 0 0 0 0 0 0 0 0 0 0 0 0 0 0 0 0 0 0 0 0 0 0 0 0 0 0 0 0 0 0 0 0 0 0 0 0 0 0 0 0 0 0 0 0 0 0 0 0 0 0 0 0 0 0 0 0 0 0 0 0 0 0 0 0 0 0 0 0 0 0 0 0 0 0 0 0 0 0 0 0 0 0 0 0 0 0 0 0 0 0 0 0 0 0 0 0 0 0 0 0 0 0 0 0 0 0 0 0 0 0 0 0 0 0 0 0 0 0 0 0 0 0 0 0 0 0 0 0 0 0 0 0 0 0 0 0 0 0 0 0 0 0 0 0 0 0 0 0 0 0 0 0 0 0 0 0 0 0 0 0 0 0 0 0 0 0 0 0 0 0 0 0 0 0 0 0 0 0 0 0 0 0 0 0 0 0 0 0 0 0 0 0 0 0 0 0 0 0 0 0 0 0 0 0 0 0 0 0 0 0 0 0 0 0 0 0 0 0 0 0 0 0 0 0 0 0 0 0 0 0 0 0 0 0 0 0 0 0 0 0 0 0 0 0 0 0 0 0 0 0 0 0 0 0 0 0 0 0 0 0 0 0 0 0 0 0 0 0 0 0 0 0 0 0 0 0 0 0 0 0 0 0 0 0 0 0 0 0 0 0 0 0 0 0 0 0 0 0 0 0 0 0 0 0 0 0 0 0 0 0 0 0 0 0 0 0 0 0 0 0 0 0 0 0 0 0 0 0 0 0 0 0 0 0 0 0 0 0 0 0 0 0 0 0 0 0 0 0 0 0 0 0 0 0 0 0 0 0 0 0 0 0 0 0 0 0 0 0 0 0 0 0 0 0 0 0 0 0 0 0 0 0 0 0 0 0 0 0 0 0 0 0 0 0 0 0 0 0 0 0 0 0 0 0 0 0 0 0 0 0 0 0 0 0 0 0 0 0 0 0 0 0 0 0 0 0 0 0 0 0 0 0 0 0 0 0 
0.0219425 0.0219773 0.0219679 0.0219682 0.021971 0.021974 0.0219762 0.0219773 0.021977 0.0219753 0.0219722 0.0219677 0.0219616 0.0219541 0.0219451 0.0219347 0.0219228 0.0219094 0.0218947 0.0218785 0.021861 0.0218422 0.021822 0.0218005 0.0217778 0.0217538 0.0217287 0.0217024 0.021675 0.0216465 0.0216169 0.0215864 0.0215549 0.0215225 0.0214892 0.021455 0.0214202 0.0213846 0.0213483 0.0213115 0.0212741 0.0212362 0.021198 0.0211594 0.0211205 0.0210815 0.0210423 0.021003 0.0209638 0.0209248 0.0208858 0.0208472 0.0208089 0.020771 0.0207336 0.0206968 0.0206605 0.020625 0.0205903 0.0205563 0.0205233 0.0204912 0.02046 0.0204299 0.0204009 0.0203729 0.0203461 0.0203204 0.0202959 0.0202726 0.0202505 0.0202295 0.0202097 0.0201911 0.0201736 0.0201573 0.0201421 0.020128 0.0201149 0.0201028 0.0200917 0.0200815 0.0200722 0.0200637 0.020056 0.0200491 0.0200429 0.0200373 0.0200323 0.0200279 0.020024 0.0200205 0.0200175 0.0200148 0.0200125 0.0200105 0.0200088 0.0200074 0.0200061 0.020005 0.0200041 0.0200034 0.0200027 0.0200022 0.0200018 0.0200014 0.0200011 0.0200009 0.0200007 0.0200005 0.0200004 0.0200003 0.0200003 0.0200002 0.0200001 0.0200001 0.0200001 0.0200001 0.02 0.02 0.02 0.02 0.02 0.02 0.02 0.02 0.02 0.02 0.02 0.02 0.02 0.02 0.02 0.02 0.02 0.02 0.02 0.02 0.02 0.02 0.02 0.02 0.02 0.02 0.02 0.02 0.02 0.02 0.02 0.02 0.02 0.02 0.02 0.02 0.02 0.02 0.02 0.02 0.02 0.02 0.02 0.02 0.02 0.02 0.02 0.02 0.02 0.02 0.02 0.02 0.02 0.02 0.02 0.02 0.02 0.02 0.02 0.02 0.02 0.02 0.02 0.02 0.02 0.02 0.02 0.02 0.02 0.02 0.02 0.02 0.02 0.02 0.02 0.02 0.02 0.02 0.02 0.02 0.02 0.02 0.02 0.02 0.02 0.02 0.02 0.02 0.02 0.02 0.02 0.02 0.02 0.02 0.02 0.02 0.02 0.02 0.02 0.02 0.02 0.02 0.02 0.02 0.02 0.02 0.02 0.02 0.02 0.0200001 0.0200001 0.0200001 0.0200001 0.0200001 0.0200001 0.0200001 0.0200002 0.0200002 0.0200002 0.0200002 0.0200003 0.0200003 0.0200003 0.0200003 0.0200004 0.0200004 0.0200005 0.0200005 0.0200005 0.0200006 0.0200006 0.0200007 0.0200007 0.0200008 0.0200008 0.0200009 0.0200009 0.020001 0.0200011 0.0200011 0.0200012 0.0200012 0.0200013 0.0200013 0.0200014 0.0200014 0.0200015 0.0200015 0.0200016 0.0200016 0.0200016 0.0200017 0.0200017 0.0200017 0.0200017 0.0200016 0.0200016 0.0200016 0.0200015 0.0200014 0.0200013 0.0200012 0.0200011 0.0200009 0.0200007 0.0200005 0.0200002 0.0199999 0.0199996 0.0199993 0.0199989 0.0199984 0.0199979 0.0199974 0.0199968 0.0199961 0.0199954 0.0199947 0.0199938 0.019993 0.019992 0.019991 0.0199898 0.0199887 0.0199874 0.019986 0.0199846 0.019983 0.0199814 0.0199796 0.0199778 0.0199758 0.0199737 0.0199716 0.0199693 0.0199668 0.0199643 0.0199616 0.0199588 0.0199558 0.0199528 0.0199495 0.0199462 0.0199426 0.019939 0.0199351 0.0199312 0.019927 0.0199227 0.0199183 0.0199136 0.0199088 0.0199039 0.0198987 0.0198934 0.0198879 0.0198822 0.0198764 0.0198704 0.0198641 0.0198578 0.0198512 0.0198444 0.0198375 0.0198304 0.0198231 0.0198156 0.0198079 0.0198001 0.0197921 0.0197839 0.0197755 0.019767 0.0197583 0.0197494 0.0197404 0.0197312 0.0197219 0.0197124 0.0197028 0.019693 0.0196832 0.0196731 0.019663 0.0196527 0.0196424 0.0196319 0.0196213 0.0196107 0.0196 0.0195892 0.0195783 0.0195674 0.0195564 0.0195454 0.0195344 0.0195233 0.0195123 0.0195012 0.0194902 0.0194791 0.0194681 0.0194572 0.0194463 0.0194354 0.0194247 0.019414 0.0194034 0.0193929 0.0193825 0.0193723 0.0193622 0.0193522 0.0193424 0.0193327 0.0193233 0.019314 0.0193049 0.0192961 0.0192874 0.019279 0.0192708 0.0192629 0.0192552 0.0192477 0.0192406 0.0192337 0.0192271 0.0192208 0.0192148 0.0192091 0.0192037 0.0191986 0.0191939 0.0191894 0.0191853 0.0191815 0.019178 0.0191749 0.0191721 0.0191696 0.0191675 0.0191657 0.0191642 0.019163 0.0191622 0.0191617 0.0191615 0.0191617 0.0191621 0.0191629 0.019164 0.0191653 0.019167 0.0191689 0.0191711 0.0191736 0.0191764 0.0191793 0.0191826 0.019186 0.0191897 0.0191936 0.0191977 0.019202 0.0192064 0.019211 0.0192158 0.0192206 0.0192256 0.0192307 0.0192359 0.0192412 0.0192466 0.019252 0.0192574 0.0192628 0.0192683 0.0192738 0.0192792 0.0192846 0.01929 0.0192953 0.0193005 0.0193056 0.0193106 0.0193155 0.0193203 0.0193248 0.0193292 0.0193334 0.0193374 0.0193412 0.0193448 0.0193482 0.0193513 0.0193543 0.0193571 0.0193597 0.0193622 0.0193646 0.0193668 0.019369 0.0193711 0.0193731 0.0193752 0.0193772 0.0193794 0.0193816 0.019384 0.0193866 0.0193895 0.0193927 0.0193964 0.0194005 0.0194053 0.0194107 0.0194169 0.019424 0.0194321 0.0194414 0.0194519 0.0194637 0.0194771 0.019492 0.0195086 0.0195269 0.0195471 0.0195692 0.0195931 0.019619 0.0196467 0.0196761 0.019707 0.0197394 0.019773 0.0198075 0.0198425 0.0198777 0.0199126 0.0199468 0.0199798 0.0200111 0.0200401 0.0200661 0.0200886 0.0201068 0.02012 0.0201275 0.0201281 0.0201211 0.0201051 0.0200791 0.0200415 0.019991 0.0199261 0.0198452 0.0197468 0.0196293 0.0194915 0.0193316 0.0191478 0.0189348 0.018683 0.0184034 0.0180994 0.0177717 0.017425 0.0170656 0.0166997 0.0163269 0.0159417 0.0155447 0.0151929 0.0150839 0.0161222 0.0147405 0 0 0 0 0 0 0 0 0 0 0 0 0 0 0 0 0 0 0 0 0 0 0 0 0 0 0 0 0 0 0 0 0 0 0 0 0 0 0 0 0 0 0 0 0 0 0 0 0 0 0 0 0 0 0 0 0 0 0 0 0 0 0 0 0 0 
0.0219425 0.0219619 0.0219654 0.0219687 0.021972 0.0219748 0.0219767 0.0219776 0.0219771 0.0219752 0.0219719 0.0219672 0.021961 0.0219533 0.0219442 0.0219336 0.0219215 0.0219081 0.0218932 0.0218769 0.0218592 0.0218402 0.0218199 0.0217983 0.0217754 0.0217514 0.0217261 0.0216997 0.0216721 0.0216435 0.0216138 0.0215832 0.0215515 0.021519 0.0214856 0.0214514 0.0214164 0.0213807 0.0213444 0.0213075 0.02127 0.0212321 0.0211938 0.0211551 0.0211162 0.0210771 0.0210379 0.0209987 0.0209595 0.0209204 0.0208815 0.0208428 0.0208046 0.0207667 0.0207293 0.0206925 0.0206564 0.0206209 0.0205863 0.0205524 0.0205195 0.0204874 0.0204564 0.0204264 0.0203975 0.0203697 0.020343 0.0203174 0.0202931 0.0202699 0.0202479 0.020227 0.0202074 0.0201889 0.0201716 0.0201554 0.0201403 0.0201263 0.0201134 0.0201014 0.0200904 0.0200803 0.0200711 0.0200628 0.0200552 0.0200484 0.0200422 0.0200367 0.0200318 0.0200274 0.0200236 0.0200202 0.0200172 0.0200146 0.0200123 0.0200104 0.0200087 0.0200072 0.020006 0.0200049 0.0200041 0.0200033 0.0200027 0.0200022 0.0200017 0.0200014 0.0200011 0.0200009 0.0200007 0.0200005 0.0200004 0.0200003 0.0200002 0.0200002 0.0200001 0.0200001 0.0200001 0.0200001 0.02 0.02 0.02 0.02 0.02 0.02 0.02 0.02 0.02 0.02 0.02 0.02 0.02 0.02 0.02 0.02 0.02 0.02 0.02 0.02 0.02 0.02 0.02 0.02 0.02 0.02 0.02 0.02 0.02 0.02 0.02 0.02 0.02 0.02 0.02 0.02 0.02 0.02 0.02 0.02 0.02 0.02 0.02 0.02 0.02 0.02 0.02 0.02 0.02 0.02 0.02 0.02 0.02 0.02 0.02 0.02 0.02 0.02 0.02 0.02 0.02 0.02 0.02 0.02 0.02 0.02 0.02 0.02 0.02 0.02 0.02 0.02 0.02 0.02 0.02 0.02 0.02 0.02 0.02 0.02 0.02 0.02 0.02 0.02 0.02 0.02 0.02 0.02 0.02 0.02 0.02 0.02 0.02 0.02 0.02 0.02 0.02 0.02 0.02 0.02 0.02 0.02 0.02 0.02 0.02 0.02 0.02 0.02 0.0200001 0.0200001 0.0200001 0.0200001 0.0200001 0.0200001 0.0200001 0.0200002 0.0200002 0.0200002 0.0200002 0.0200002 0.0200003 0.0200003 0.0200003 0.0200004 0.0200004 0.0200004 0.0200005 0.0200005 0.0200005 0.0200006 0.0200006 0.0200007 0.0200007 0.0200008 0.0200008 0.0200009 0.020001 0.020001 0.0200011 0.0200011 0.0200012 0.0200012 0.0200013 0.0200014 0.0200014 0.0200015 0.0200015 0.0200016 0.0200016 0.0200016 0.0200017 0.0200017 0.0200017 0.0200017 0.0200017 0.0200017 0.0200016 0.0200016 0.0200015 0.0200015 0.0200014 0.0200012 0.0200011 0.0200009 0.0200008 0.0200005 0.0200003 0.02 0.0199997 0.0199993 0.0199989 0.0199985 0.019998 0.0199974 0.0199969 0.0199962 0.0199955 0.0199948 0.0199939 0.0199931 0.0199921 0.0199911 0.01999 0.0199888 0.0199875 0.0199861 0.0199847 0.0199832 0.0199815 0.0199798 0.0199779 0.019976 0.0199739 0.0199718 0.0199695 0.0199671 0.0199645 0.0199618 0.019959 0.0199561 0.019953 0.0199498 0.0199465 0.019943 0.0199393 0.0199355 0.0199316 0.0199274 0.0199232 0.0199187 0.0199141 0.0199093 0.0199044 0.0198993 0.019894 0.0198885 0.0198829 0.019877 0.019871 0.0198648 0.0198585 0.0198519 0.0198452 0.0198383 0.0198312 0.019824 0.0198165 0.0198089 0.0198011 0.0197931 0.019785 0.0197767 0.0197682 0.0197595 0.0197507 0.0197418 0.0197326 0.0197234 0.019714 0.0197044 0.0196947 0.0196849 0.0196749 0.0196648 0.0196546 0.0196443 0.0196339 0.0196234 0.0196129 0.0196022 0.0195915 0.0195807 0.0195698 0.0195589 0.019548 0.019537 0.0195261 0.0195151 0.0195041 0.0194931 0.0194822 0.0194712 0.0194603 0.0194495 0.0194387 0.019428 0.0194174 0.0194069 0.0193964 0.0193861 0.0193759 0.0193659 0.019356 0.0193462 0.0193366 0.0193272 0.019318 0.019309 0.0193001 0.0192915 0.0192831 0.019275 0.0192671 0.0192594 0.019252 0.0192449 0.019238 0.0192314 0.0192251 0.0192191 0.0192134 0.019208 0.0192029 0.0191981 0.0191936 0.0191895 0.0191857 0.0191822 0.019179 0.0191761 0.0191736 0.0191714 0.0191696 0.019168 0.0191668 0.0191659 0.0191654 0.0191651 0.0191652 0.0191656 0.0191663 0.0191673 0.0191686 0.0191701 0.019172 0.0191741 0.0191765 0.0191792 0.0191821 0.0191852 0.0191886 0.0191922 0.019196 0.0192 0.0192042 0.0192086 0.0192131 0.0192178 0.0192226 0.0192275 0.0192325 0.0192377 0.0192429 0.0192482 0.0192536 0.019259 0.0192645 0.01927 0.0192755 0.0192809 0.0192864 0.0192918 0.0192972 0.0193025 0.0193078 0.0193129 0.0193179 0.0193228 0.0193276 0.0193321 0.0193365 0.0193406 0.0193446 0.0193483 0.0193518 0.0193551 0.0193582 0.0193611 0.0193638 0.0193664 0.0193689 0.0193713 0.0193735 0.0193758 0.0193779 0.0193801 0.0193823 0.0193846 0.019387 0.0193895 0.0193922 0.0193952 0.0193985 0.0194023 0.0194065 0.0194113 0.0194168 0.019423 0.0194301 0.0194383 0.0194475 0.0194579 0.0194697 0.019483 0.0194977 0.0195142 0.0195324 0.0195524 0.0195742 0.019598 0.0196235 0.0196509 0.01968 0.0197106 0.0197427 0.0197759 0.01981 0.0198446 0.0198794 0.0199139 0.0199478 0.0199804 0.0200113 0.0200399 0.0200656 0.0200877 0.0201056 0.0201185 0.0201256 0.020126 0.0201186 0.0201024 0.0200762 0.0200386 0.0199882 0.0199235 0.019843 0.0197453 0.0196287 0.0194917 0.0193325 0.0191483 0.0189349 0.018689 0.0184142 0.0181129 0.0177878 0.0174437 0.0170871 0.0167247 0.0163551 0.015976 0.0155907 0.0152687 0.0151173 0.0151801 0.0147431 0.0140916 0.0135234 0.0128189 0.0118908 0.0107708 0.00996399 0.010258 0.00818692 0 0 0 0 0 0 0 0 0 0 0 0 0 0 0 0 0 0 0 0 0 0 0 0 0 0 0 0 0 0 0 0 0 0 0 0 0 0 0 0 0 0 0 0 0 0 0 0 0 0 0 0 0 0 0 0 0 0 
0.0219425 0.021957 0.0219641 0.0219689 0.0219727 0.0219756 0.0219775 0.0219782 0.0219776 0.0219756 0.0219723 0.0219674 0.0219612 0.0219534 0.0219442 0.0219336 0.0219215 0.0219079 0.021893 0.0218766 0.0218589 0.0218398 0.0218194 0.0217978 0.0217749 0.0217507 0.0217254 0.0216989 0.0216713 0.0216426 0.0216129 0.0215821 0.0215505 0.0215179 0.0214844 0.0214502 0.0214151 0.0213794 0.021343 0.021306 0.0212686 0.0212306 0.0211922 0.0211536 0.0211146 0.0210755 0.0210363 0.020997 0.0209578 0.0209187 0.0208798 0.0208411 0.0208028 0.020765 0.0207276 0.0206908 0.0206547 0.0206192 0.0205846 0.0205507 0.0205178 0.0204858 0.0204548 0.0204248 0.0203959 0.0203681 0.0203415 0.020316 0.0202917 0.0202685 0.0202466 0.0202258 0.0202062 0.0201878 0.0201706 0.0201544 0.0201394 0.0201255 0.0201125 0.0201006 0.0200897 0.0200797 0.0200705 0.0200622 0.0200547 0.0200479 0.0200418 0.0200363 0.0200315 0.0200271 0.0200233 0.0200199 0.020017 0.0200144 0.0200122 0.0200102 0.0200086 0.0200071 0.0200059 0.0200049 0.020004 0.0200033 0.0200027 0.0200021 0.0200017 0.0200014 0.0200011 0.0200009 0.0200007 0.0200005 0.0200004 0.0200003 0.0200002 0.0200002 0.0200001 0.0200001 0.0200001 0.0200001 0.02 0.02 0.02 0.02 0.02 0.02 0.02 0.02 0.02 0.02 0.02 0.02 0.02 0.02 0.02 0.02 0.02 0.02 0.02 0.02 0.02 0.02 0.02 0.02 0.02 0.02 0.02 0.02 0.02 0.02 0.02 0.02 0.02 0.02 0.02 0.02 0.02 0.02 0.02 0.02 0.02 0.02 0.02 0.02 0.02 0.02 0.02 0.02 0.02 0.02 0.02 0.02 0.02 0.02 0.02 0.02 0.02 0.02 0.02 0.02 0.02 0.02 0.02 0.02 0.02 0.02 0.02 0.02 0.02 0.02 0.02 0.02 0.02 0.02 0.02 0.02 0.02 0.02 0.02 0.02 0.02 0.02 0.02 0.02 0.02 0.02 0.02 0.02 0.02 0.02 0.02 0.02 0.02 0.02 0.02 0.02 0.02 0.02 0.02 0.02 0.02 0.02 0.02 0.02 0.02 0.02 0.02 0.02 0.0200001 0.0200001 0.0200001 0.0200001 0.0200001 0.0200001 0.0200001 0.0200002 0.0200002 0.0200002 0.0200002 0.0200002 0.0200003 0.0200003 0.0200003 0.0200004 0.0200004 0.0200004 0.0200005 0.0200005 0.0200006 0.0200006 0.0200007 0.0200007 0.0200008 0.0200008 0.0200009 0.0200009 0.020001 0.020001 0.0200011 0.0200011 0.0200012 0.0200013 0.0200013 0.0200014 0.0200014 0.0200015 0.0200015 0.0200016 0.0200016 0.0200017 0.0200017 0.0200017 0.0200017 0.0200017 0.0200017 0.0200017 0.0200017 0.0200016 0.0200016 0.0200015 0.0200014 0.0200013 0.0200012 0.020001 0.0200008 0.0200006 0.0200003 0.0200001 0.0199997 0.0199994 0.019999 0.0199985 0.0199981 0.0199975 0.0199969 0.0199963 0.0199956 0.0199949 0.019994 0.0199932 0.0199922 0.0199912 0.0199901 0.0199889 0.0199876 0.0199863 0.0199849 0.0199833 0.0199817 0.01998 0.0199781 0.0199762 0.0199741 0.019972 0.0199697 0.0199673 0.0199648 0.0199621 0.0199593 0.0199564 0.0199534 0.0199502 0.0199468 0.0199433 0.0199397 0.0199359 0.019932 0.0199279 0.0199236 0.0199192 0.0199146 0.0199099 0.0199049 0.0198998 0.0198946 0.0198891 0.0198835 0.0198777 0.0198718 0.0198656 0.0198593 0.0198528 0.0198461 0.0198393 0.0198322 0.019825 0.0198176 0.0198101 0.0198023 0.0197944 0.0197863 0.0197781 0.0197697 0.0197611 0.0197523 0.0197435 0.0197344 0.0197252 0.0197159 0.0197064 0.0196968 0.0196871 0.0196772 0.0196672 0.0196571 0.0196469 0.0196366 0.0196262 0.0196158 0.0196052 0.0195946 0.0195839 0.0195732 0.0195624 0.0195516 0.0195408 0.0195299 0.0195191 0.0195082 0.0194973 0.0194865 0.0194757 0.019465 0.0194543 0.0194436 0.019433 0.0194225 0.0194121 0.0194018 0.0193916 0.0193816 0.0193716 0.0193618 0.0193522 0.0193427 0.0193334 0.0193243 0.0193154 0.0193067 0.0192981 0.0192898 0.0192818 0.0192739 0.0192664 0.019259 0.0192519 0.0192451 0.0192386 0.0192323 0.0192264 0.0192207 0.0192153 0.0192103 0.0192055 0.019201 0.0191969 0.019193 0.0191895 0.0191863 0.0191835 0.0191809 0.0191787 0.0191768 0.0191752 0.0191739 0.019173 0.0191724 0.0191721 0.0191721 0.0191724 0.019173 0.0191739 0.0191751 0.0191765 0.0191783 0.0191803 0.0191826 0.0191851 0.0191879 0.0191909 0.0191942 0.0191977 0.0192013 0.0192052 0.0192093 0.0192135 0.0192179 0.0192225 0.0192272 0.019232 0.019237 0.019242 0.0192472 0.0192524 0.0192578 0.0192631 0.0192686 0.0192741 0.0192796 0.0192851 0.0192906 0.0192961 0.0193015 0.0193069 0.0193123 0.0193175 0.0193227 0.0193277 0.0193325 0.0193372 0.0193417 0.019346 0.0193501 0.0193539 0.0193576 0.019361 0.0193642 0.0193672 0.01937 0.0193726 0.0193752 0.0193776 0.0193799 0.0193822 0.0193845 0.0193868 0.0193891 0.0193915 0.019394 0.0193966 0.0193995 0.0194026 0.0194061 0.01941 0.0194143 0.0194193 0.0194249 0.0194313 0.0194385 0.0194468 0.0194561 0.0194666 0.0194785 0.0194918 0.0195066 0.0195231 0.0195413 0.0195612 0.019583 0.0196066 0.0196321 0.0196593 0.0196882 0.0197187 0.0197505 0.0197834 0.0198172 0.0198515 0.0198859 0.0199201 0.0199536 0.0199858 0.0200163 0.0200445 0.0200697 0.0200914 0.0201088 0.0201213 0.0201279 0.0201278 0.02012 0.0201034 0.0200768 0.0200389 0.0199884 0.0199238 0.0198436 0.0197464 0.0196307 0.0194947 0.0193364 0.0191529 0.0189411 0.0186992 0.0184289 0.0181318 0.0178112 0.017472 0.0171214 0.0167667 0.0164102 0.0160498 0.0157026 0.015421 0.0152718 0.0151196 0.0147195 0.0141544 0.0135166 0.0127791 0.0118905 0.0107948 0.00986911 0.00923269 0.00784005 0.00610083 0.00424363 0.00228062 0.00115146 0 0 0 0 0 0 0 0 0 0 0 0 0 0 0 0 0 0 0 0 0 0 0 0 0 0 0 0 0 0 0 0 0 0 0 0 0 0 0 0 0 0 0 0 0 0 0 0 0 0 0 0 0 0 
0.0219425 0.0219551 0.0219634 0.0219691 0.0219733 0.0219764 0.0219782 0.0219788 0.0219782 0.0219762 0.0219727 0.0219679 0.0219615 0.0219537 0.0219445 0.0219338 0.0219216 0.021908 0.0218931 0.0218767 0.0218589 0.0218398 0.0218194 0.0217977 0.0217747 0.0217505 0.0217251 0.0216986 0.021671 0.0216422 0.0216125 0.0215817 0.02155 0.0215173 0.0214838 0.0214495 0.0214145 0.0213787 0.0213423 0.0213053 0.0212678 0.0212298 0.0211914 0.0211527 0.0211137 0.0210746 0.0210353 0.020996 0.0209568 0.0209177 0.0208788 0.0208401 0.0208018 0.0207639 0.0207266 0.0206898 0.0206536 0.0206182 0.0205835 0.0205497 0.0205167 0.0204847 0.0204537 0.0204238 0.0203949 0.0203671 0.0203405 0.020315 0.0202907 0.0202676 0.0202457 0.0202249 0.0202054 0.020187 0.0201698 0.0201537 0.0201387 0.0201248 0.0201119 0.0201001 0.0200892 0.0200792 0.0200701 0.0200618 0.0200543 0.0200476 0.0200415 0.020036 0.0200312 0.0200269 0.0200231 0.0200198 0.0200168 0.0200143 0.020012 0.0200101 0.0200085 0.020007 0.0200058 0.0200048 0.020004 0.0200032 0.0200026 0.0200021 0.0200017 0.0200014 0.0200011 0.0200009 0.0200007 0.0200005 0.0200004 0.0200003 0.0200002 0.0200002 0.0200001 0.0200001 0.0200001 0.0200001 0.02 0.02 0.02 0.02 0.02 0.02 0.02 0.02 0.02 0.02 0.02 0.02 0.02 0.02 0.02 0.02 0.02 0.02 0.02 0.02 0.02 0.02 0.02 0.02 0.02 0.02 0.02 0.02 0.02 0.02 0.02 0.02 0.02 0.02 0.02 0.02 0.02 0.02 0.02 0.02 0.02 0.02 0.02 0.02 0.02 0.02 0.02 0.02 0.02 0.02 0.02 0.02 0.02 0.02 0.02 0.02 0.02 0.02 0.02 0.02 0.02 0.02 0.02 0.02 0.02 0.02 0.02 0.02 0.02 0.02 0.02 0.02 0.02 0.02 0.02 0.02 0.02 0.02 0.02 0.02 0.02 0.02 0.02 0.02 0.02 0.02 0.02 0.02 0.02 0.02 0.02 0.02 0.02 0.02 0.02 0.02 0.02 0.02 0.02 0.02 0.02 0.02 0.02 0.02 0.02 0.02 0.02 0.0200001 0.0200001 0.0200001 0.0200001 0.0200001 0.0200001 0.0200001 0.0200001 0.0200002 0.0200002 0.0200002 0.0200002 0.0200003 0.0200003 0.0200003 0.0200003 0.0200004 0.0200004 0.0200005 0.0200005 0.0200005 0.0200006 0.0200006 0.0200007 0.0200007 0.0200008 0.0200008 0.0200009 0.0200009 0.020001 0.020001 0.0200011 0.0200012 0.0200012 0.0200013 0.0200013 0.0200014 0.0200015 0.0200015 0.0200016 0.0200016 0.0200017 0.0200017 0.0200017 0.0200017 0.0200018 0.0200018 0.0200018 0.0200018 0.0200017 0.0200017 0.0200016 0.0200016 0.0200015 0.0200014 0.0200012 0.0200011 0.0200009 0.0200007 0.0200004 0.0200001 0.0199998 0.0199995 0.0199991 0.0199986 0.0199982 0.0199976 0.0199971 0.0199964 0.0199957 0.019995 0.0199942 0.0199933 0.0199924 0.0199913 0.0199902 0.0199891 0.0199878 0.0199865 0.019985 0.0199835 0.0199819 0.0199802 0.0199784 0.0199764 0.0199744 0.0199723 0.01997 0.0199676 0.0199651 0.0199625 0.0199597 0.0199568 0.0199538 0.0199506 0.0199473 0.0199438 0.0199402 0.0199364 0.0199325 0.0199284 0.0199242 0.0199198 0.0199153 0.0199106 0.0199057 0.0199006 0.0198954 0.01989 0.0198845 0.0198787 0.0198728 0.0198667 0.0198604 0.019854 0.0198474 0.0198406 0.0198336 0.0198265 0.0198192 0.0198117 0.019804 0.0197962 0.0197882 0.01978 0.0197717 0.0197632 0.0197546 0.0197458 0.0197369 0.0197278 0.0197186 0.0197092 0.0196998 0.0196902 0.0196804 0.0196706 0.0196606 0.0196506 0.0196404 0.0196302 0.0196199 0.0196095 0.019599 0.0195885 0.019578 0.0195674 0.0195567 0.0195461 0.0195354 0.0195247 0.019514 0.0195034 0.0194927 0.0194821 0.0194715 0.019461 0.0194505 0.0194401 0.0194298 0.0194196 0.0194095 0.0193995 0.0193896 0.0193798 0.0193702 0.0193607 0.0193514 0.0193423 0.0193333 0.0193245 0.0193159 0.0193076 0.0192994 0.0192914 0.0192837 0.0192762 0.019269 0.019262 0.0192553 0.0192489 0.0192427 0.0192368 0.0192311 0.0192258 0.0192208 0.019216 0.0192116 0.0192074 0.0192036 0.0192001 0.0191969 0.019194 0.0191914 0.0191891 0.0191872 0.0191855 0.0191842 0.0191832 0.0191824 0.019182 0.0191819 0.0191821 0.0191826 0.0191834 0.0191844 0.0191858 0.0191874 0.0191892 0.0191914 0.0191937 0.0191964 0.0191992 0.0192023 0.0192056 0.0192091 0.0192128 0.0192167 0.0192208 0.019225 0.0192295 0.019234 0.0192387 0.0192436 0.0192485 0.0192536 0.0192588 0.0192641 0.0192695 0.0192749 0.0192804 0.0192859 0.0192915 0.019297 0.0193026 0.019308 0.0193135 0.0193189 0.0193242 0.0193294 0.0193345 0.0193395 0.0193443 0.0193489 0.0193534 0.0193576 0.0193617 0.0193655 0.0193691 0.0193724 0.0193756 0.0193785 0.0193813 0.0193839 0.0193864 0.0193889 0.0193913 0.0193936 0.019396 0.0193985 0.019401 0.0194037 0.0194065 0.0194095 0.0194129 0.0194166 0.0194206 0.0194252 0.0194304 0.0194362 0.0194428 0.0194502 0.0194586 0.0194681 0.0194788 0.0194908 0.0195042 0.0195191 0.0195356 0.0195538 0.0195737 0.0195955 0.019619 0.0196443 0.0196714 0.0197001 0.0197302 0.0197617 0.0197943 0.0198277 0.0198616 0.0198956 0.0199294 0.0199623 0.019994 0.020024 0.0200516 0.0200763 0.0200975 0.0201144 0.0201263 0.0201325 0.0201319 0.0201238 0.0201069 0.0200801 0.0200422 0.0199918 0.0199276 0.019848 0.0197517 0.0196372 0.0195025 0.0193456 0.0191639 0.0189548 0.0187173 0.0184518 0.0181601 0.0178455 0.0175136 0.0171717 0.0168291 0.0164925 0.016163 0.0158559 0.0156007 0.0154065 0.0151814 0.0147992 0.014281 0.0136429 0.0129043 0.0120638 0.0111421 0.0100339 0.0091082 0.0076928 0.0060354 0.00422294 0.00230739 0.000451581 -0.00193453 -0.00496077 -0.00789596 0 0 0 0 0 0 0 0 0 0 0 0 0 0 0 0 0 0 0 0 0 0 0 0 0 0 0 0 0 0 0 0 0 0 0 0 0 0 0 0 0 0 0 0 0 0 0 0 0 0 0 
0.0219425 0.0219542 0.0219629 0.0219692 0.0219738 0.021977 0.0219789 0.0219795 0.0219788 0.0219767 0.0219732 0.0219683 0.0219619 0.0219541 0.0219448 0.021934 0.0219219 0.0219082 0.0218932 0.0218768 0.021859 0.0218398 0.0218194 0.0217976 0.0217746 0.0217504 0.021725 0.0216984 0.0216707 0.0216419 0.0216121 0.0215813 0.0215496 0.0215169 0.0214834 0.021449 0.0214139 0.0213781 0.0213417 0.0213047 0.0212671 0.0212291 0.0211907 0.021152 0.021113 0.0210739 0.0210346 0.0209953 0.020956 0.0209169 0.020878 0.0208393 0.020801 0.0207631 0.0207257 0.0206889 0.0206527 0.0206173 0.0205826 0.0205488 0.0205158 0.0204838 0.0204528 0.0204229 0.020394 0.0203662 0.0203396 0.0203142 0.0202899 0.0202668 0.0202449 0.0202242 0.0202046 0.0201863 0.0201691 0.020153 0.0201381 0.0201242 0.0201113 0.0200995 0.0200887 0.0200787 0.0200696 0.0200614 0.0200539 0.0200472 0.0200412 0.0200358 0.020031 0.0200267 0.0200229 0.0200196 0.0200167 0.0200141 0.0200119 0.02001 0.0200084 0.020007 0.0200058 0.0200048 0.0200039 0.0200032 0.0200026 0.0200021 0.0200017 0.0200013 0.0200011 0.0200008 0.0200007 0.0200005 0.0200004 0.0200003 0.0200002 0.0200002 0.0200001 0.0200001 0.0200001 0.0200001 0.02 0.02 0.02 0.02 0.02 0.02 0.02 0.02 0.02 0.02 0.02 0.02 0.02 0.02 0.02 0.02 0.02 0.02 0.02 0.02 0.02 0.02 0.02 0.02 0.02 0.02 0.02 0.02 0.02 0.02 0.02 0.02 0.02 0.02 0.02 0.02 0.02 0.02 0.02 0.02 0.02 0.02 0.02 0.02 0.02 0.02 0.02 0.02 0.02 0.02 0.02 0.02 0.02 0.02 0.02 0.02 0.02 0.02 0.02 0.02 0.02 0.02 0.02 0.02 0.02 0.02 0.02 0.02 0.02 0.02 0.02 0.02 0.02 0.02 0.02 0.02 0.02 0.02 0.02 0.02 0.02 0.02 0.02 0.02 0.02 0.02 0.02 0.02 0.02 0.02 0.02 0.02 0.02 0.02 0.02 0.02 0.02 0.02 0.02 0.02 0.02 0.02 0.02 0.02 0.02 0.02 0.02 0.0200001 0.0200001 0.0200001 0.0200001 0.0200001 0.0200001 0.0200001 0.0200002 0.0200002 0.0200002 0.0200002 0.0200002 0.0200003 0.0200003 0.0200003 0.0200004 0.0200004 0.0200004 0.0200005 0.0200005 0.0200006 0.0200006 0.0200006 0.0200007 0.0200007 0.0200008 0.0200008 0.0200009 0.020001 0.020001 0.0200011 0.0200011 0.0200012 0.0200013 0.0200013 0.0200014 0.0200014 0.0200015 0.0200015 0.0200016 0.0200016 0.0200017 0.0200017 0.0200018 0.0200018 0.0200018 0.0200018 0.0200018 0.0200018 0.0200018 0.0200017 0.0200017 0.0200016 0.0200015 0.0200014 0.0200013 0.0200011 0.0200009 0.0200007 0.0200005 0.0200002 0.0199999 0.0199996 0.0199992 0.0199987 0.0199983 0.0199977 0.0199972 0.0199965 0.0199959 0.0199951 0.0199943 0.0199935 0.0199925 0.0199915 0.0199904 0.0199893 0.019988 0.0199867 0.0199853 0.0199838 0.0199822 0.0199805 0.0199787 0.0199768 0.0199747 0.0199726 0.0199704 0.019968 0.0199655 0.0199629 0.0199602 0.0199573 0.0199543 0.0199511 0.0199478 0.0199444 0.0199408 0.0199371 0.0199332 0.0199292 0.019925 0.0199207 0.0199162 0.0199115 0.0199067 0.0199017 0.0198965 0.0198912 0.0198857 0.01988 0.0198742 0.0198681 0.0198619 0.0198556 0.019849 0.0198423 0.0198355 0.0198284 0.0198212 0.0198138 0.0198063 0.0197986 0.0197907 0.0197827 0.0197745 0.0197661 0.0197576 0.019749 0.0197402 0.0197313 0.0197222 0.019713 0.0197037 0.0196943 0.0196847 0.0196751 0.0196653 0.0196554 0.0196455 0.0196354 0.0196253 0.0196152 0.0196049 0.0195946 0.0195843 0.0195739 0.0195635 0.019553 0.0195426 0.0195321 0.0195217 0.0195113 0.0195009 0.0194905 0.0194801 0.0194698 0.0194596 0.0194495 0.0194394 0.0194294 0.0194195 0.0194097 0.0194 0.0193905 0.0193811 0.0193718 0.0193627 0.0193538 0.019345 0.0193364 0.019328 0.0193198 0.0193118 0.019304 0.0192964 0.0192891 0.019282 0.0192751 0.0192685 0.0192621 0.019256 0.0192502 0.0192446 0.0192394 0.0192344 0.0192297 0.0192252 0.0192211 0.0192173 0.0192137 0.0192105 0.0192075 0.0192049 0.0192026 0.0192005 0.0191988 0.0191974 0.0191962 0.0191954 0.0191949 0.0191946 0.0191947 0.019195 0.0191956 0.0191965 0.0191976 0.019199 0.0192007 0.0192026 0.0192048 0.0192072 0.0192099 0.0192128 0.0192159 0.0192192 0.0192227 0.0192264 0.0192303 0.0192344 0.0192387 0.0192431 0.0192477 0.0192525 0.0192574 0.0192624 0.0192675 0.0192728 0.0192781 0.0192835 0.019289 0.0192945 0.0193001 0.0193056 0.0193111 0.0193166 0.0193221 0.0193275 0.0193328 0.0193381 0.0193432 0.0193483 0.0193532 0.0193579 0.0193625 0.019367 0.0193712 0.0193753 0.0193791 0.0193827 0.0193861 0.0193893 0.0193923 0.0193951 0.0193978 0.0194004 0.019403 0.0194055 0.0194081 0.0194108 0.0194135 0.0194164 0.0194194 0.0194227 0.0194263 0.0194302 0.0194346 0.0194394 0.0194448 0.0194509 0.0194577 0.0194654 0.019474 0.0194837 0.0194946 0.0195067 0.0195202 0.0195352 0.0195518 0.01957 0.0195899 0.0196115 0.0196349 0.0196601 0.0196869 0.0197152 0.0197451 0.0197761 0.0198083 0.0198412 0.0198745 0.0199079 0.019941 0.0199734 0.0200044 0.0200337 0.0200607 0.0200848 0.0201053 0.0201216 0.020133 0.0201387 0.0201379 0.0201295 0.0201125 0.0200859 0.0200483 0.0199985 0.0199351 0.0198567 0.0197618 0.0196488 0.0195159 0.019361 0.0191818 0.0189762 0.0187431 0.0184829 0.0181973 0.0178899 0.0175668 0.0172361 0.016909 0.0165965 0.0163041 0.0160334 0.0157978 0.0155731 0.0153163 0.0149391 0.0144447 0.0138301 0.0131114 0.0123039 0.0114354 0.0104317 0.00919809 0.0077486 0.00611155 0.00432819 0.00236138 0.000297563 -0.00200452 -0.0048224 -0.00791547 -0.0119521 -0.0164866 0 0 0 0 0 0 0 0 0 0 0 0 0 0 0 0 0 0 0 0 0 0 0 0 0 0 0 0 0 0 0 0 0 0 0 0 0 0 0 0 0 0 0 0 0 0 0 0 0 