# vtk DataFile Version 2.0
iteration 2619
ASCII

DATASET STRUCTURED_POINTS
DIMENSIONS 621 64 1
ORIGIN 0 0 0
SPACING 0.00161031 0.00161031 0.00161031

POINT_DATA 39744
SCALARS P float 1
LOOKUP_TABLE default
0 0 0 0 0 0 0 0 0 0 0 0 0 0 0 0 0 0 0 0 0 0 0 0 0 0 0 0 0 0 0 0 0 0 0 0 0 0 0 0 0 0 0 0 0 0 0 0 0 0 0 0 0 0 0 0 0 0 0 0 0 0 0 0 0 0 0 0 0 0 0 0 0 0 0 0 0 0 0 0 0 0 0 0 0 0 0 0 0 0 0 0 0 0 0 0 0 0 0 0 0 0 0 0 0 0 0 0 0 0 0 0 0 0 0 0 0 0 0 0 0 0 0 0 0 0 0 0 0 0 0 0 0 0 0 0 0 0 0 0 0 0 0 0 0 0 0 0 0 0 0 0 0 0 0 0 0 0 0 0 0 0 0 0 0 0 0 0 0 0 0 0 0 0 0 0 0 0 0 0 0 0 0 0 0 0 0 0 0 0 0 0 0 0 0 0 0 0 0 0 0 0 0 0 0 0 0 0 0 0 0 0 0 0 0 0 0 0 0 0 0 0 0 0 0 0 0 0 0 0 0 0 0 0 0 0 0 0 0 0 0 0 0 0 0 0 0 0 0 0 0 0 0 0 0 0 0 0 0 0 0 0 0 0 0 0 0 0 0 0 0 0 0 0 0 0 0 0 0 0 0 0 0 0 0 0 0 0 0 0 0 0 0 0 0 0 0 0 0 0 0 0 0 0 0 0 0 0 0 0 0 0 0 0 0 0 0 0 0 0 0 0 0 0 0 0 0 0 0 0 0 0 0 0 0 0 0 0 0 0 0 0 0 0 0 0 0 0 0 0 0 0 0 0 0 0 0 0 0 0 0 0 0 0 0 0 0 0 0 0 0 0 0 0 0 0 0 0 0 0 0 0 0 0 0 0 0 0 0 0 0 0 0 0 0 0 0 0 0 0 0 0 0 0 0 0 0 0 0 0 0 0 0 0 0 0 0 0 0 0 0 0 0 0 0 0 0 0 0 0 0 0 0 0 0 0 0 0 0 0 0 0 0 0 0 0 0 0 0 0 0 0 0 0 0 0 0 0 0 0 0 0 0 0 0 0 0 0 0 0 0 0 0 0 0 0 0 0 0 0 0 0 0 0 0 0 0 0 0 0 0 0 0 0 0 0 0 0 0 0 0 0 0 0 0 0 0 0 0 0 0 0 0 0 0 0 0 0 0 0 0 0 0 0 0 0 0 0 0 0 0 0 0 0 0 0 0 0 0 0 0 0 0 0 0 0 0 0 0 0 0 0 0 0 0 0 0 0 0 0 0 0 0 0 0 0 0 0 0 0 0 0 0 0 0 0 0 0 0 0 0 0 0 0 0 0 0 0 0 0 0 0 0 0 0 0 0 0 0 0 0 0 0 0 0 0 0 0 0 0 0 0 0 0 0 0 0 0 0 0 0 
0.0180107 0.0181038 0.018017 0.0180126 0.0180118 0.0180146 0.01802 0.0180275 0.0180369 0.0180481 0.0180611 0.0180758 0.0180923 0.0181105 0.0181303 0.0181517 0.0181747 0.0181992 0.0182251 0.0182525 0.0182812 0.0183112 0.0183425 0.018375 0.0184087 0.0184434 0.0184792 0.018516 0.0185537 0.0185923 0.0186318 0.018672 0.0187131 0.0187548 0.0187972 0.0188403 0.0188841 0.0189284 0.0189733 0.0190187 0.0190647 0.0191112 0.0191581 0.0192056 0.0192535 0.0193018 0.0193505 0.0193996 0.019449 0.0194987 0.0195488 0.019599 0.0196495 0.0197002 0.0197508 0.0198014 0.0198514 0.0198999 0.0199439 0.0199809 0.0200102 0.0200476 0.0200886 0.0201313 0.020175 0.0202193 0.0202638 0.0203086 0.0203533 0.0203981 0.0204427 0.0204872 0.0205314 0.0205752 0.0206187 0.0206617 0.0207043 0.0207463 0.0207878 0.0208286 0.0208688 0.0209083 0.020947 0.020985 0.0210222 0.0210585 0.0210939 0.0211285 0.0211621 0.0211948 0.0212264 0.0212571 0.0212868 0.0213154 0.0213429 0.0213694 0.0213948 0.021419 0.0214421 0.0214641 0.021485 0.0215047 0.0215232 0.0215405 0.0215566 0.0215716 0.0215853 0.0215979 0.0216092 0.0216193 0.0216283 0.021636 0.0216425 0.0216478 0.021652 0.0216549 0.0216567 0.0216572 0.0216566 0.0216549 0.021652 0.021648 0.0216428 0.0216366 0.0216293 0.0216209 0.0216114 0.021601 0.0215895 0.0215771 0.0215636 0.0215493 0.021534 0.0215179 0.0215009 0.0214831 0.0214645 0.0214452 0.0214251 0.0214043 0.0213829 0.0213608 0.0213381 0.0213149 0.0212912 0.021267 0.0212423 0.0212173 0.0211918 0.0211661 0.02114 0.0211137 0.0210872 0.0210605 0.0210336 0.0210067 0.0209797 0.0209526 0.0209256 0.0208986 0.0208717 0.0208449 0.0208183 0.0207918 0.0207656 0.0207396 0.0207138 0.0206884 0.0206633 0.0206385 0.0206141 0.0205902 0.0205666 0.0205435 0.0205208 0.0204987 0.020477 0.0204558 0.0204352 0.020415 0.0203955 0.0203764 0.020358 0.0203401 0.0203227 0.020306 0.0202898 0.0202741 0.0202591 0.0202446 0.0202307 0.0202173 0.0202045 0.0201922 0.0201805 0.0201692 0.0201586 0.0201484 0.0201387 0.0201295 0.0201207 0.0201124 0.0201046 0.0200972 0.0200902 0.0200836 0.0200774 0.0200715 0.0200661 0.0200609 0.0200561 0.0200516 0.0200474 0.0200435 0.0200399 0.0200365 0.0200333 0.0200304 0.0200277 0.0200252 0.0200229 0.0200208 0.0200189 0.0200171 0.0200154 0.0200139 0.0200125 0.0200113 0.0200101 0.0200091 0.0200081 0.0200073 0.0200065 0.0200058 0.0200052 0.0200046 0.0200041 0.0200036 0.0200032 0.0200028 0.0200025 0.0200022 0.0200019 0.0200017 0.0200015 0.0200013 0.0200011 0.020001 0.0200008 0.0200007 0.0200006 0.0200005 0.0200004 0.0200004 0.0200003 0.0200002 0.0200002 0.0200002 0.0200001 0.0200001 0.02 0.02 0.02 0.0199999 0.0199999 0.0199999 0.0199999 0.0199998 0.0199998 0.0199998 0.0199997 0.0199997 0.0199997 0.0199996 0.0199996 0.0199996 0.0199995 0.0199995 0.0199994 0.0199994 0.0199993 0.0199993 0.0199992 0.0199992 0.0199991 0.019999 0.019999 0.0199989 0.0199988 0.0199987 0.0199986 0.0199985 0.0199984 0.0199983 0.0199982 0.019998 0.0199979 0.0199978 0.0199976 0.0199975 0.0199973 0.0199972 0.019997 0.0199968 0.0199966 0.0199964 0.0199963 0.019996 0.0199958 0.0199956 0.0199954 0.0199951 0.0199949 0.0199947 0.0199944 0.0199941 0.0199939 0.0199936 0.0199933 0.019993 0.0199927 0.0199925 0.0199922 0.0199919 0.0199916 0.0199913 0.0199909 0.0199906 0.0199903 0.01999 0.0199897 0.0199894 0.0199891 0.0199888 0.0199886 0.0199883 0.019988 0.0199878 0.0199875 0.0199873 0.019987 0.0199868 0.0199866 0.0199865 0.0199863 0.0199862 0.0199861 0.019986 0.0199859 0.0199859 0.0199858 0.0199858 0.0199859 0.019986 0.0199861 0.0199862 0.0199864 0.0199867 0.019987 0.0199873 0.0199877 0.0199881 0.0199886 0.0199891 0.0199897 0.0199904 0.0199911 0.0199919 0.0199927 0.0199937 0.0199946 0.0199957 0.0199968 0.019998 0.0199993 0.0200006 0.0200021 0.0200036 0.0200052 0.0200069 0.0200086 0.0200105 0.0200125 0.0200145 0.0200166 0.0200189 0.0200212 0.0200236 0.0200261 0.0200287 0.0200314 0.0200342 0.0200371 0.0200402 0.0200433 0.0200465 0.0200498 0.0200532 0.0200567 0.0200603 0.0200641 0.0200679 0.0200718 0.0200758 0.02008 0.0200842 0.0200885 0.0200929 0.0200974 0.020102 0.0201067 0.0201115 0.0201164 0.0201214 0.0201264 0.0201316 0.0201368 0.0201421 0.0201475 0.0201529 0.0201584 0.020164 0.0201697 0.0201754 0.0201812 0.020187 0.0201928 0.0201987 0.0202047 0.0202107 0.0202167 0.0202227 0.0202288 0.0202349 0.020241 0.020247 0.0202531 0.0202592 0.0202653 0.0202713 0.0202773 0.0202833 0.0202892 0.0202951 0.020301 0.0203069 0.0203127 0.0203186 0.0203244 0.0203302 0.020336 0.0203416 0.0203472 0.0203528 0.0203582 0.0203636 0.0203688 0.020374 0.0203791 0.020384 0.0203889 0.0203936 0.0203982 0.0204027 0.020407 0.0204112 0.0204153 0.0204192 0.0204229 0.0204265 0.0204299 0.0204332 0.0204362 0.0204391 0.0204418 0.0204443 0.0204466 0.0204488 0.0204507 0.0204524 0.0204539 0.0204551 0.0204562 0.020457 0.0204576 0.0204579 0.0204581 0.0204579 0.0204576 0.020457 0.0204561 0.020455 0.0204536 0.020452 0.0204501 0.0204479 0.0204455 0.0204428 0.0204398 0.0204366 0.020433 0.0204293 0.0204252 0.0204208 0.0204162 0.0204113 0.0204062 0.0204007 0.020395 0.020389 0.0203828 0.0203762 0.0203694 0.0203623 0.020355 0.0203474 0.0203395 0.0203314 0.0203231 0.0203144 0.0203056 0.0202965 0.0202871 0.0202776 0.0202677 0.0202577 0.0202474 0.0202369 0.0202262 0.0202153 0.0202042 0.0201928 0.0201812 0.0201694 0.0201574 0.0201451 0.0201327 0.02012 0.0201071 0.0200939 0.0200806 0.020067 0.0200532 0.0200392 0.020025 0.0200105 0.0199959 0.0199811 0.0199661 0.019951 0.0199358 0.0199205 0.0199051 0.0198898 0.0198745 0.0198593 0.0198443 0.0198295 0.0198151 0.0198012 0.0197877 0.0197749 0.0197629 0.0197518 0.0197416 0.0197327 0.019725 0.0197187 0.0197139 0.0197109 0.0197096 0.0197103 0.019713 0.0197178 0.0197247 0.0197339 0.0197453 0.0197588 0.0197745 0.0197923 0.019812 0.0198335 0.0198567 0.0198812 0.0199067 0.0199331 0.0199597 0.0199862 0.0200118 0.0200359 0.0200574 0.0200752 0.020088 0.0200941 0.0200915 0.0200731 0.0200256 0.0199627 0.0198821 0.0197843 0.0196663 0.0195256 0.0193607 0.0191697 0.0189518 0.0187065 0.0184333 0.0181324 0.017804 0.0174483 0.0170653 0.0166546 0.0162134 0.0157307 0.0151453 0.0143172 0.0135388 0.0148185 0 0 0 
0.0180107 0.0180436 0.0180196 0.0180141 0.0180132 0.0180157 0.0180208 0.0180281 0.0180374 0.0180485 0.0180615 0.0180762 0.0180926 0.0181107 0.0181305 0.0181519 0.0181748 0.0181993 0.0182252 0.0182526 0.0182813 0.0183113 0.0183426 0.018375 0.0184087 0.0184434 0.0184792 0.018516 0.0185537 0.0185923 0.0186318 0.018672 0.0187131 0.0187548 0.0187973 0.0188404 0.0188841 0.0189284 0.0189733 0.0190188 0.0190648 0.0191113 0.0191582 0.0192057 0.0192536 0.0193019 0.0193506 0.0193996 0.019449 0.0194988 0.0195488 0.019599 0.0196495 0.0197 0.0197505 0.0198005 0.0198495 0.0198963 0.0199392 0.0199778 0.0200145 0.0200533 0.0200945 0.0201371 0.0201807 0.0202249 0.0202694 0.020314 0.0203587 0.0204034 0.020448 0.0204924 0.0205365 0.0205802 0.0206236 0.0206666 0.0207091 0.020751 0.0207924 0.0208331 0.0208732 0.0209126 0.0209513 0.0209891 0.0210262 0.0210624 0.0210977 0.0211321 0.0211656 0.0211982 0.0212298 0.0212603 0.0212899 0.0213184 0.0213458 0.0213721 0.0213974 0.0214215 0.0214445 0.0214664 0.0214871 0.0215067 0.021525 0.0215423 0.0215583 0.0215731 0.0215867 0.0215991 0.0216104 0.0216204 0.0216292 0.0216368 0.0216432 0.0216484 0.0216524 0.0216552 0.0216568 0.0216573 0.0216566 0.0216547 0.0216517 0.0216476 0.0216423 0.021636 0.0216285 0.02162 0.0216105 0.0215999 0.0215883 0.0215758 0.0215623 0.0215478 0.0215325 0.0215162 0.0214992 0.0214813 0.0214626 0.0214431 0.021423 0.0214021 0.0213806 0.0213585 0.0213357 0.0213124 0.0212887 0.0212644 0.0212397 0.0212145 0.0211891 0.0211633 0.0211372 0.0211108 0.0210843 0.0210575 0.0210306 0.0210037 0.0209767 0.0209496 0.0209226 0.0208956 0.0208687 0.0208419 0.0208153 0.0207888 0.0207626 0.0207366 0.0207109 0.0206855 0.0206604 0.0206357 0.0206113 0.0205874 0.0205639 0.0205408 0.0205182 0.0204961 0.0204744 0.0204533 0.0204327 0.0204127 0.0203932 0.0203742 0.0203558 0.020338 0.0203207 0.020304 0.0202879 0.0202723 0.0202573 0.0202429 0.020229 0.0202157 0.020203 0.0201908 0.0201791 0.0201679 0.0201573 0.0201472 0.0201375 0.0201284 0.0201197 0.0201115 0.0201037 0.0200963 0.0200894 0.0200828 0.0200767 0.0200709 0.0200654 0.0200603 0.0200556 0.0200511 0.0200469 0.0200431 0.0200394 0.0200361 0.020033 0.0200301 0.0200274 0.0200249 0.0200227 0.0200206 0.0200186 0.0200169 0.0200152 0.0200137 0.0200124 0.0200111 0.02001 0.020009 0.020008 0.0200072 0.0200064 0.0200057 0.0200051 0.0200045 0.020004 0.0200036 0.0200031 0.0200028 0.0200024 0.0200021 0.0200019 0.0200016 0.0200014 0.0200013 0.0200011 0.0200009 0.0200008 0.0200007 0.0200006 0.0200005 0.0200004 0.0200004 0.0200003 0.0200002 0.0200002 0.0200001 0.0200001 0.0200001 0.02 0.02 0.02 0.0199999 0.0199999 0.0199999 0.0199999 0.0199998 0.0199998 0.0199998 0.0199997 0.0199997 0.0199997 0.0199996 0.0199996 0.0199996 0.0199995 0.0199995 0.0199994 0.0199994 0.0199993 0.0199993 0.0199992 0.0199992 0.0199991 0.019999 0.019999 0.0199989 0.0199988 0.0199987 0.0199986 0.0199985 0.0199984 0.0199983 0.0199982 0.0199981 0.0199979 0.0199978 0.0199977 0.0199975 0.0199973 0.0199972 0.019997 0.0199968 0.0199967 0.0199965 0.0199963 0.0199961 0.0199958 0.0199956 0.0199954 0.0199952 0.0199949 0.0199947 0.0199944 0.0199942 0.0199939 0.0199936 0.0199933 0.0199931 0.0199928 0.0199925 0.0199922 0.0199919 0.0199916 0.0199913 0.019991 0.0199907 0.0199904 0.0199901 0.0199897 0.0199894 0.0199892 0.0199889 0.0199886 0.0199883 0.019988 0.0199878 0.0199875 0.0199873 0.0199871 0.0199868 0.0199867 0.0199865 0.0199863 0.0199862 0.0199861 0.019986 0.0199859 0.0199859 0.0199859 0.0199859 0.0199859 0.019986 0.0199861 0.0199862 0.0199864 0.0199867 0.019987 0.0199873 0.0199877 0.0199881 0.0199886 0.0199891 0.0199897 0.0199904 0.0199911 0.0199919 0.0199927 0.0199936 0.0199946 0.0199957 0.0199968 0.019998 0.0199993 0.0200006 0.020002 0.0200036 0.0200051 0.0200068 0.0200086 0.0200105 0.0200124 0.0200144 0.0200166 0.0200188 0.0200211 0.0200235 0.020026 0.0200286 0.0200313 0.0200341 0.020037 0.02004 0.0200432 0.0200464 0.0200497 0.0200531 0.0200566 0.0200602 0.0200639 0.0200677 0.0200716 0.0200756 0.0200797 0.020084 0.0200883 0.0200927 0.0200972 0.0201017 0.0201064 0.0201112 0.0201161 0.020121 0.020126 0.0201311 0.0201363 0.0201416 0.0201469 0.0201524 0.0201578 0.0201634 0.020169 0.0201747 0.0201804 0.0201861 0.020192 0.0201978 0.0202037 0.0202096 0.0202156 0.0202216 0.0202276 0.0202336 0.0202396 0.0202456 0.0202516 0.0202577 0.0202637 0.0202697 0.0202757 0.0202817 0.0202876 0.0202935 0.0202995 0.0203054 0.0203114 0.0203172 0.020323 0.0203288 0.0203345 0.0203402 0.0203458 0.0203513 0.0203567 0.020362 0.0203673 0.0203724 0.0203774 0.0203824 0.0203872 0.0203919 0.0203965 0.0204009 0.0204052 0.0204094 0.0204135 0.0204173 0.0204211 0.0204246 0.020428 0.0204312 0.0204343 0.0204372 0.0204398 0.0204423 0.0204446 0.0204467 0.0204486 0.0204503 0.0204518 0.020453 0.0204541 0.0204549 0.0204555 0.0204558 0.0204559 0.0204558 0.0204554 0.0204548 0.0204539 0.0204528 0.0204514 0.0204498 0.0204479 0.0204457 0.0204433 0.0204406 0.0204376 0.0204344 0.0204309 0.0204271 0.0204231 0.0204188 0.0204142 0.0204093 0.0204042 0.0203988 0.0203931 0.0203871 0.0203809 0.0203744 0.0203676 0.0203606 0.0203533 0.0203457 0.0203379 0.0203299 0.0203216 0.020313 0.0203042 0.0202952 0.0202859 0.0202764 0.0202666 0.0202567 0.0202465 0.020236 0.0202254 0.0202146 0.0202035 0.0201922 0.0201807 0.020169 0.020157 0.0201448 0.0201325 0.0201199 0.020107 0.020094 0.0200807 0.0200672 0.0200535 0.0200396 0.0200254 0.0200111 0.0199965 0.0199818 0.0199669 0.0199519 0.0199367 0.0199215 0.0199062 0.0198909 0.0198757 0.0198606 0.0198456 0.0198309 0.0198165 0.0198026 0.0197892 0.0197764 0.0197644 0.0197532 0.0197431 0.019734 0.0197263 0.0197199 0.0197151 0.0197119 0.0197106 0.0197111 0.0197136 0.0197182 0.0197249 0.0197339 0.019745 0.0197583 0.0197737 0.0197912 0.0198106 0.0198318 0.0198546 0.0198788 0.0199041 0.0199302 0.0199567 0.0199829 0.0200085 0.0200324 0.020054 0.020072 0.020085 0.0200915 0.0200896 0.020075 0.0200391 0.0199818 0.0199059 0.0198112 0.0196958 0.0195575 0.0193949 0.0192063 0.0189906 0.0187472 0.0184755 0.0181757 0.0178477 0.0174914 0.0171065 0.0166907 0.0162367 0.0157206 0.01509 0.0142998 0.0134528 0.0127129 0.0114093 0.0113339 0 
0.0180107 0.0180246 0.0180178 0.0180145 0.0180141 0.0180166 0.0180216 0.0180287 0.0180379 0.018049 0.0180619 0.0180766 0.018093 0.0181111 0.0181309 0.0181523 0.0181752 0.0181997 0.0182256 0.0182529 0.0182816 0.0183116 0.0183429 0.0183754 0.018409 0.0184438 0.0184795 0.0185163 0.018554 0.0185927 0.0186321 0.0186724 0.0187134 0.0187552 0.0187977 0.0188408 0.0188846 0.0189289 0.0189738 0.0190193 0.0190653 0.0191118 0.0191588 0.0192063 0.0192541 0.0193024 0.0193511 0.0194002 0.0194496 0.0194993 0.0195493 0.0195995 0.0196499 0.0197002 0.0197502 0.0197994 0.0198469 0.0198921 0.0199344 0.0199742 0.0200138 0.0200543 0.0200962 0.020139 0.0201827 0.0202269 0.0202714 0.020316 0.0203607 0.0204054 0.02045 0.0204943 0.0205384 0.0205822 0.0206256 0.0206685 0.020711 0.0207529 0.0207943 0.020835 0.0208751 0.0209144 0.020953 0.0209909 0.0210279 0.0210641 0.0210994 0.0211338 0.0211673 0.0211998 0.0212313 0.0212618 0.0212913 0.0213198 0.0213472 0.0213735 0.0213987 0.0214228 0.0214458 0.0214676 0.0214883 0.0215078 0.0215261 0.0215433 0.0215593 0.021574 0.0215876 0.0216 0.0216112 0.0216211 0.0216299 0.0216374 0.0216438 0.0216489 0.0216529 0.0216557 0.0216572 0.0216577 0.0216569 0.021655 0.0216519 0.0216477 0.0216424 0.021636 0.0216286 0.02162 0.0216104 0.0215998 0.0215882 0.0215756 0.021562 0.0215475 0.0215321 0.0215159 0.0214987 0.0214808 0.0214621 0.0214426 0.0214224 0.0214015 0.0213799 0.0213578 0.021335 0.0213117 0.0212878 0.0212635 0.0212388 0.0212137 0.0211881 0.0211623 0.0211362 0.0211098 0.0210832 0.0210565 0.0210296 0.0210026 0.0209756 0.0209485 0.0209215 0.0208945 0.0208675 0.0208407 0.0208141 0.0207877 0.0207614 0.0207354 0.0207097 0.0206843 0.0206592 0.0206345 0.0206102 0.0205862 0.0205627 0.0205397 0.0205171 0.020495 0.0204734 0.0204523 0.0204317 0.0204117 0.0203922 0.0203732 0.0203548 0.020337 0.0203198 0.0203031 0.020287 0.0202715 0.0202565 0.0202421 0.0202283 0.020215 0.0202023 0.0201901 0.0201784 0.0201673 0.0201567 0.0201466 0.020137 0.0201279 0.0201192 0.020111 0.0201032 0.0200959 0.020089 0.0200824 0.0200763 0.0200705 0.0200651 0.02006 0.0200553 0.0200508 0.0200467 0.0200428 0.0200392 0.0200359 0.0200328 0.0200299 0.0200273 0.0200248 0.0200225 0.0200204 0.0200185 0.0200168 0.0200151 0.0200137 0.0200123 0.0200111 0.0200099 0.0200089 0.020008 0.0200071 0.0200064 0.0200057 0.0200051 0.0200045 0.020004 0.0200035 0.0200031 0.0200027 0.0200024 0.0200021 0.0200019 0.0200016 0.0200014 0.0200012 0.0200011 0.0200009 0.0200008 0.0200007 0.0200006 0.0200005 0.0200004 0.0200004 0.0200003 0.0200002 0.0200002 0.0200001 0.0200001 0.0200001 0.02 0.02 0.02 0.0199999 0.0199999 0.0199999 0.0199999 0.0199998 0.0199998 0.0199998 0.0199997 0.0199997 0.0199997 0.0199996 0.0199996 0.0199996 0.0199995 0.0199995 0.0199994 0.0199994 0.0199993 0.0199993 0.0199992 0.0199992 0.0199991 0.019999 0.019999 0.0199989 0.0199988 0.0199987 0.0199986 0.0199985 0.0199984 0.0199983 0.0199982 0.0199981 0.0199979 0.0199978 0.0199977 0.0199975 0.0199974 0.0199972 0.019997 0.0199969 0.0199967 0.0199965 0.0199963 0.0199961 0.0199959 0.0199956 0.0199954 0.0199952 0.0199949 0.0199947 0.0199944 0.0199942 0.0199939 0.0199936 0.0199934 0.0199931 0.0199928 0.0199925 0.0199922 0.0199919 0.0199916 0.0199913 0.019991 0.0199907 0.0199904 0.0199901 0.0199898 0.0199895 0.0199892 0.0199889 0.0199886 0.0199883 0.0199881 0.0199878 0.0199875 0.0199873 0.0199871 0.0199869 0.0199867 0.0199865 0.0199863 0.0199862 0.0199861 0.019986 0.0199859 0.0199859 0.0199859 0.0199859 0.0199859 0.019986 0.0199861 0.0199863 0.0199865 0.0199867 0.019987 0.0199873 0.0199877 0.0199881 0.0199886 0.0199892 0.0199898 0.0199904 0.0199911 0.0199919 0.0199927 0.0199937 0.0199946 0.0199957 0.0199968 0.019998 0.0199993 0.0200006 0.0200021 0.0200036 0.0200052 0.0200068 0.0200086 0.0200105 0.0200124 0.0200144 0.0200166 0.0200188 0.0200211 0.0200235 0.020026 0.0200286 0.0200313 0.0200341 0.020037 0.02004 0.0200431 0.0200463 0.0200496 0.020053 0.0200565 0.0200601 0.0200638 0.0200676 0.0200715 0.0200755 0.0200796 0.0200838 0.0200881 0.0200925 0.0200969 0.0201015 0.0201062 0.0201109 0.0201157 0.0201206 0.0201256 0.0201307 0.0201359 0.0201411 0.0201464 0.0201518 0.0201572 0.0201627 0.0201682 0.0201738 0.0201795 0.0201852 0.020191 0.0201967 0.0202026 0.0202084 0.0202143 0.0202202 0.0202261 0.0202321 0.020238 0.020244 0.02025 0.020256 0.020262 0.0202679 0.0202739 0.0202799 0.0202859 0.0202918 0.0202978 0.0203037 0.0203095 0.0203154 0.0203211 0.0203269 0.0203325 0.0203381 0.0203436 0.0203491 0.0203545 0.0203598 0.0203649 0.02037 0.020375 0.0203799 0.0203847 0.0203894 0.0203939 0.0203983 0.0204025 0.0204067 0.0204106 0.0204145 0.0204182 0.0204217 0.020425 0.0204282 0.0204312 0.020434 0.0204366 0.0204391 0.0204413 0.0204434 0.0204452 0.0204468 0.0204483 0.0204495 0.0204505 0.0204512 0.0204517 0.0204521 0.0204521 0.0204519 0.0204515 0.0204509 0.02045 0.0204488 0.0204474 0.0204457 0.0204438 0.0204416 0.0204392 0.0204365 0.0204335 0.0204303 0.0204268 0.020423 0.0204189 0.0204146 0.0204101 0.0204052 0.0204001 0.0203947 0.020389 0.0203831 0.0203769 0.0203704 0.0203637 0.0203568 0.0203495 0.020342 0.0203343 0.0203263 0.020318 0.0203096 0.0203009 0.0202919 0.0202827 0.0202733 0.0202636 0.0202538 0.0202437 0.0202334 0.0202229 0.0202121 0.0202012 0.02019 0.0201786 0.020167 0.0201552 0.0201431 0.0201309 0.0201184 0.0201057 0.0200928 0.0200797 0.0200663 0.0200527 0.0200389 0.0200249 0.0200107 0.0199963 0.0199817 0.0199669 0.019952 0.019937 0.0199219 0.0199067 0.0198915 0.0198764 0.0198613 0.0198465 0.0198319 0.0198176 0.0198037 0.0197904 0.0197776 0.0197656 0.0197545 0.0197444 0.0197353 0.0197276 0.0197212 0.0197163 0.019713 0.0197115 0.0197119 0.0197142 0.0197186 0.0197251 0.0197338 0.0197446 0.0197575 0.0197725 0.0197896 0.0198086 0.0198293 0.0198517 0.0198754 0.0199001 0.0199257 0.0199516 0.0199774 0.0200025 0.0200262 0.0200474 0.0200652 0.0200782 0.0200849 0.0200834 0.0200707 0.0200417 0.0199909 0.0199195 0.0198275 0.0197139 0.0195774 0.0194166 0.0192302 0.0190171 0.0187767 0.0185085 0.0182125 0.0178885 0.0175365 0.0171555 0.0167419 0.0162846 0.0157586 0.0151317 0.0143945 0.0135517 0.0124896 0.0107401 0.00747446 1.6263e-18 
0.0180107 0.0180174 0.018016 0.0180145 0.0180148 0.0180174 0.0180223 0.0180294 0.0180385 0.0180495 0.0180624 0.0180771 0.0180935 0.0181116 0.0181313 0.0181527 0.0181757 0.0182001 0.018226 0.0182534 0.0182821 0.0183121 0.0183433 0.0183758 0.0184094 0.0184442 0.01848 0.0185167 0.0185545 0.0185931 0.0186326 0.0186729 0.0187139 0.0187557 0.0187982 0.0188413 0.0188851 0.0189295 0.0189744 0.0190199 0.019066 0.0191125 0.0191595 0.019207 0.0192549 0.0193032 0.0193519 0.019401 0.0194504 0.0195001 0.01955 0.0196001 0.0196503 0.0197002 0.0197495 0.0197976 0.0198439 0.0198881 0.0199304 0.0199714 0.0200124 0.0200541 0.0200965 0.0201398 0.0201836 0.0202278 0.0202724 0.0203171 0.0203618 0.0204065 0.0204511 0.0204955 0.0205396 0.0205833 0.0206267 0.0206697 0.0207121 0.0207541 0.0207954 0.0208362 0.0208762 0.0209156 0.0209542 0.020992 0.021029 0.0210652 0.0211005 0.0211349 0.0211683 0.0212009 0.0212324 0.0212629 0.0212924 0.0213208 0.0213482 0.0213745 0.0213997 0.0214237 0.0214467 0.0214685 0.0214892 0.0215086 0.021527 0.0215441 0.0215601 0.0215748 0.0215884 0.0216007 0.0216119 0.0216218 0.0216305 0.0216381 0.0216444 0.0216495 0.0216534 0.0216562 0.0216577 0.0216581 0.0216573 0.0216554 0.0216523 0.0216481 0.0216427 0.0216363 0.0216288 0.0216202 0.0216106 0.0215999 0.0215883 0.0215757 0.0215621 0.0215475 0.0215321 0.0215158 0.0214987 0.0214807 0.0214619 0.0214424 0.0214222 0.0214013 0.0213797 0.0213575 0.0213347 0.0213114 0.0212875 0.0212632 0.0212384 0.0212132 0.0211877 0.0211619 0.0211357 0.0211093 0.0210827 0.0210559 0.021029 0.021002 0.020975 0.0209479 0.0209208 0.0208938 0.0208669 0.0208401 0.0208135 0.020787 0.0207608 0.0207348 0.020709 0.0206836 0.0206586 0.0206338 0.0206095 0.0205856 0.0205621 0.020539 0.0205164 0.0204943 0.0204727 0.0204516 0.020431 0.020411 0.0203915 0.0203726 0.0203542 0.0203364 0.0203192 0.0203025 0.0202864 0.0202709 0.020256 0.0202416 0.0202278 0.0202145 0.0202018 0.0201896 0.020178 0.0201669 0.0201563 0.0201462 0.0201366 0.0201275 0.0201188 0.0201107 0.0201029 0.0200956 0.0200887 0.0200822 0.020076 0.0200703 0.0200649 0.0200598 0.0200551 0.0200506 0.0200465 0.0200427 0.0200391 0.0200357 0.0200326 0.0200298 0.0200271 0.0200247 0.0200224 0.0200203 0.0200184 0.0200167 0.0200151 0.0200136 0.0200122 0.020011 0.0200099 0.0200089 0.0200079 0.0200071 0.0200063 0.0200056 0.020005 0.0200045 0.020004 0.0200035 0.0200031 0.0200027 0.0200024 0.0200021 0.0200019 0.0200016 0.0200014 0.0200012 0.0200011 0.0200009 0.0200008 0.0200007 0.0200006 0.0200005 0.0200004 0.0200004 0.0200003 0.0200002 0.0200002 0.0200001 0.0200001 0.0200001 0.02 0.02 0.02 0.0199999 0.0199999 0.0199999 0.0199999 0.0199998 0.0199998 0.0199998 0.0199997 0.0199997 0.0199997 0.0199996 0.0199996 0.0199996 0.0199995 0.0199995 0.0199995 0.0199994 0.0199994 0.0199993 0.0199992 0.0199992 0.0199991 0.019999 0.019999 0.0199989 0.0199988 0.0199987 0.0199986 0.0199985 0.0199984 0.0199983 0.0199982 0.0199981 0.019998 0.0199978 0.0199977 0.0199975 0.0199974 0.0199972 0.019997 0.0199969 0.0199967 0.0199965 0.0199963 0.0199961 0.0199959 0.0199957 0.0199954 0.0199952 0.019995 0.0199947 0.0199945 0.0199942 0.0199939 0.0199937 0.0199934 0.0199931 0.0199928 0.0199925 0.0199922 0.0199919 0.0199916 0.0199913 0.019991 0.0199907 0.0199904 0.0199901 0.0199898 0.0199895 0.0199892 0.0199889 0.0199887 0.0199884 0.0199881 0.0199879 0.0199876 0.0199874 0.0199871 0.0199869 0.0199867 0.0199866 0.0199864 0.0199863 0.0199862 0.0199861 0.019986 0.019986 0.019986 0.019986 0.019986 0.0199861 0.0199862 0.0199864 0.0199866 0.0199868 0.0199871 0.0199874 0.0199878 0.0199882 0.0199887 0.0199892 0.0199898 0.0199905 0.0199912 0.019992 0.0199928 0.0199937 0.0199947 0.0199958 0.0199969 0.0199981 0.0199994 0.0200007 0.0200021 0.0200037 0.0200053 0.0200069 0.0200087 0.0200106 0.0200125 0.0200145 0.0200167 0.0200189 0.0200212 0.0200236 0.0200261 0.0200287 0.0200314 0.0200342 0.0200371 0.0200401 0.0200431 0.0200463 0.0200496 0.020053 0.0200565 0.0200601 0.0200638 0.0200675 0.0200714 0.0200754 0.0200795 0.0200836 0.0200879 0.0200922 0.0200967 0.0201012 0.0201058 0.0201105 0.0201153 0.0201202 0.0201251 0.0201301 0.0201352 0.0201404 0.0201456 0.0201509 0.0201563 0.0201617 0.0201672 0.0201727 0.0201783 0.0201839 0.0201896 0.0201953 0.0202011 0.0202068 0.0202126 0.0202185 0.0202243 0.0202302 0.0202361 0.0202421 0.020248 0.0202539 0.0202599 0.0202658 0.0202718 0.0202777 0.0202836 0.0202895 0.0202954 0.0203012 0.020307 0.0203128 0.0203185 0.0203241 0.0203297 0.0203352 0.0203407 0.0203461 0.0203514 0.0203566 0.0203617 0.0203667 0.0203717 0.0203765 0.0203812 0.0203858 0.0203902 0.0203945 0.0203987 0.0204028 0.0204067 0.0204104 0.020414 0.0204175 0.0204207 0.0204238 0.0204268 0.0204295 0.0204321 0.0204344 0.0204366 0.0204386 0.0204403 0.0204419 0.0204432 0.0204444 0.0204453 0.020446 0.0204464 0.0204467 0.0204467 0.0204464 0.020446 0.0204453 0.0204443 0.0204431 0.0204416 0.0204399 0.020438 0.0204357 0.0204333 0.0204305 0.0204275 0.0204243 0.0204207 0.020417 0.0204129 0.0204086 0.020404 0.0203992 0.0203941 0.0203887 0.0203831 0.0203772 0.020371 0.0203646 0.020358 0.020351 0.0203439 0.0203365 0.0203288 0.0203209 0.0203127 0.0203044 0.0202958 0.0202869 0.0202778 0.0202686 0.020259 0.0202493 0.0202394 0.0202292 0.0202188 0.0202082 0.0201974 0.0201864 0.0201752 0.0201638 0.0201521 0.0201402 0.0201282 0.0201159 0.0201033 0.0200906 0.0200776 0.0200645 0.0200511 0.0200374 0.0200236 0.0200096 0.0199953 0.0199809 0.0199663 0.0199516 0.0199367 0.0199217 0.0199067 0.0198917 0.0198767 0.0198618 0.0198471 0.0198326 0.0198184 0.0198047 0.0197914 0.0197788 0.0197668 0.0197557 0.0197456 0.0197366 0.0197288 0.0197223 0.0197173 0.0197139 0.0197123 0.0197125 0.0197146 0.0197187 0.0197248 0.0197331 0.0197435 0.0197559 0.0197704 0.0197869 0.0198053 0.0198253 0.019847 0.0198699 0.019894 0.0199188 0.019944 0.0199691 0.0199935 0.0200166 0.0200374 0.0200549 0.0200678 0.0200746 0.0200735 0.0200621 0.0200368 0.0199929 0.0199276 0.0198403 0.0197305 0.0195973 0.0194396 0.0192566 0.0190475 0.0188115 0.0185485 0.0182582 0.0179405 0.017595 0.01722 0.0168103 0.0163536 0.0158297 0.0152192 0.0145089 0.0136495 0.0124547 0.0103999 0.00664386 1.51788e-18 