# vtk DataFile Version 2.0
iteration 243
ASCII

DATASET STRUCTURED_POINTS
DIMENSIONS 621 64 1
ORIGIN 0 0 0
SPACING 0.00161031 0.00161031 0.00161031

POINT_DATA 39744
SCALARS P float 1
LOOKUP_TABLE default
0 0 0 0 0 0 0 0 0 0 0 0 0 0 0 0 0 0 0 0 0 0 0 0 0 0 0 0 0 0 0 0 0 0 0 0 0 0 0 0 0 0 0 0 0 0 0 0 0 0 0 0 0 0 0 0 0 0 0 0 0 0 0 0 0 0 0 0 0 0 0 0 0 0 0 0 0 0 0 0 0 0 0 0 0 0 0 0 0 0 0 0 0 0 0 0 0 0 0 0 0 0 0 0 0 0 0 0 0 0 0 0 0 0 0 0 0 0 0 0 0 0 0 0 0 0 0 0 0 0 0 0 0 0 0 0 0 0 0 0 0 0 0 0 0 0 0 0 0 0 0 0 0 0 0 0 0 0 0 0 0 0 0 0 0 0 0 0 0 0 0 0 0 0 0 0 0 0 0 0 0 0 0 0 0 0 0 0 0 0 0 0 0 0 0 0 0 0 0 0 0 0 0 0 0 0 0 0 0 0 0 0 0 0 0 0 0 0 0 0 0 0 0 0 0 0 0 0 0 0 0 0 0 0 0 0 0 0 0 0 0 0 0 0 0 0 0 0 0 0 0 0 0 0 0 0 0 0 0 0 0 0 0 0 0 0 0 0 0 0 0 0 0 0 0 0 0 0 0 0 0 0 0 0 0 0 0 0 0 0 0 0 0 0 0 0 0 0 0 0 0 0 0 0 0 0 0 0 0 0 0 0 0 0 0 0 0 0 0 0 0 0 0 0 0 0 0 0 0 0 0 0 0 0 0 0 0 0 0 0 0 0 0 0 0 0 0 0 0 0 0 0 0 0 0 0 0 0 0 0 0 0 0 0 0 0 0 0 0 0 0 0 0 0 0 0 0 0 0 0 0 0 0 0 0 0 0 0 0 0 0 0 0 0 0 0 0 0 0 0 0 0 0 0 0 0 0 0 0 0 0 0 0 0 0 0 0 0 0 0 0 0 0 0 0 0 0 0 0 0 0 0 0 0 0 0 0 0 0 0 0 0 0 0 0 0 0 0 0 0 0 0 0 0 0 0 0 0 0 0 0 0 0 0 0 0 0 0 0 0 0 0 0 0 0 0 0 0 0 0 0 0 0 0 0 0 0 0 0 0 0 0 0 0 0 0 0 0 0 0 0 0 0 0 0 0 0 0 0 0 0 0 0 0 0 0 0 0 0 0 0 0 0 0 0 0 0 0 0 0 0 0 0 0 0 0 0 0 0 0 0 0 0 0 0 0 0 0 0 0 0 0 0 0 0 0 0 0 0 0 0 0 0 0 0 0 0 0 0 0 0 0 0 0 0 0 0 0 0 0 0 0 0 0 0 0 0 0 0 0 0 0 0 0 0 0 0 0 0 0 0 0 0 0 0 0 0 0 0 0 0 0 0 0 0 0 0 0 0 0 0 
0.02 0.0199983 0.0199957 0.0199934 0.0199913 0.0199896 0.0199887 0.0199888 0.0199901 0.0199925 0.0199962 0.0200008 0.0200061 0.0200115 0.0200162 0.0200194 0.0200201 0.0200168 0.020008 0.0199919 0.0199666 0.0199295 0.0198782 0.01981 0.0197219 0.0196108 0.0194738 0.0193077 0.0191095 0.0188762 0.0186044 0.018291 0.0179331 0.0175294 0.0170814 0.0165963 0.016112 0.0158889 0.0179607 0 0 0 0 0 0 0 0 0 0 0 0 0 0 0 0 0 0 0 0 0 0 0 0 0 0 0 0 0 0 0 0 0 0 0 0 0 0 0 0 0 0 0 0 0 0 0 0 0 0 0 0 0 0 0 0 0 0 0 0 0 0 0 0 0 0 0 0 0 0 0 0 0 0 0 0 0 0 0 0 0 0 0 0 0 0 0 0 0 0 0 0 0 0 0 0 0 0 0 0 0 0 0 0 0 0 0 0 0 0 0 0 0 0 0 0 0 0 0 0 0 0 0 0 0 0 0 0 0 0 0 0 0 0 0 0 0 0 0 0 0 0 0 0 0 0 0 0 0 0 0 0 0 0 0 0 0 0 0 0 0 0 0 0 0 0 0 0 0 0 0 0 0 0 0 0 0 0 0 0 0 0 0 0 0 0 0 0 0 0 0 0 0 0 0 0 0 0 0 0 0 0 0 0 0 0 0 0 0 0 0 0 0 0 0 0 0 0 0 0 0 0 0 0 0 0 0 0 0 0 0 0 0 0 0 0 0 0 0 0 0 0 0 0 0 0 0 0 0 0 0 0 0 0 0 0 0 0 0 0 0 0 0 0 0 0 0 0 0 0 0 0 0 0 0 0 0 0 0 0 0 0 0 0 0 0 0 0 0 0 0 0 0 0 0 0 0 0 0 0 0 0 0 0 0 0 0 0 0 0 0 0 0 0 0 0 0 0 0 0 0 0 0 0 0 0 0 0 0 0 0 0 0 0 0 0 0 0 0 0 0 0 0 0 0 0 0 0 0 0 0 0 0 0 0 0 0 0 0 0 0 0 0 0 0 0 0 0 0 0 0 0 0 0 0 0 0 0 0 0 0 0 0 0 0 0 0 0 0 0 0 0 0 0 0 0 0 0 0 0 0 0 0 0 0 0 0 0 0 0 0 0 0 0 0 0 0 0 0 0 0 0 0 0 0 0 0 0 0 0 0 0 0 0 0 0 0 0 0 0 0 0 0 0 0 0 0 0 0 0 0 0 0 0 0 0 0 0 0 0 0 0 0 0 0 0 0 0 0 0 0 0 0 0 0 0 0 0 0 0 0 0 0 0 0 0 0 0 0 0 0 0 0 0 0 0 0 0 0 0 0 0 0 0 0 0 0 0 0 0 0 0 0 0 0 0 0 0 0 0 0 0 0 0 0 0 0 0 0 0 0 0 0 0 0 0 0 0 0 0 0 0 0 0 0 0 0 0 0 0 0 0 0 0 0 0 0 0 0 0 0 0 0 0 0 0 0 0 0 0 0 0 0 0 0 0 0 0 0 0 0 0 
0.02 0.0199981 0.0199958 0.0199936 0.0199916 0.01999 0.0199892 0.0199895 0.0199909 0.0199935 0.0199973 0.0200022 0.0200076 0.0200131 0.0200179 0.0200213 0.0200219 0.0200185 0.0200096 0.0199932 0.0199674 0.0199297 0.0198777 0.0198084 0.0197192 0.0196068 0.0194684 0.0193007 0.0191009 0.0188659 0.0185925 0.0182776 0.0179183 0.0175139 0.0170674 0.0165904 0.016132 0.0158104 0.0157313 0.0149796 0.0140612 0.0132926 0.0124149 0.0113925 0.010463 0.0109167 0 0 0 0 0 0 0 0 0 0 0 0 0 0 0 0 0 0 0 0 0 0 0 0 0 0 0 0 0 0 0 0 0 0 0 0 0 0 0 0 0 0 0 0 0 0 0 0 0 0 0 0 0 0 0 0 0 0 0 0 0 0 0 0 0 0 0 0 0 0 0 0 0 0 0 0 0 0 0 0 0 0 0 0 0 0 0 0 0 0 0 0 0 0 0 0 0 0 0 0 0 0 0 0 0 0 0 0 0 0 0 0 0 0 0 0 0 0 0 0 0 0 0 0 0 0 0 0 0 0 0 0 0 0 0 0 0 0 0 0 0 0 0 0 0 0 0 0 0 0 0 0 0 0 0 0 0 0 0 0 0 0 0 0 0 0 0 0 0 0 0 0 0 0 0 0 0 0 0 0 0 0 0 0 0 0 0 0 0 0 0 0 0 0 0 0 0 0 0 0 0 0 0 0 0 0 0 0 0 0 0 0 0 0 0 0 0 0 0 0 0 0 0 0 0 0 0 0 0 0 0 0 0 0 0 0 0 0 0 0 0 0 0 0 0 0 0 0 0 0 0 0 0 0 0 0 0 0 0 0 0 0 0 0 0 0 0 0 0 0 0 0 0 0 0 0 0 0 0 0 0 0 0 0 0 0 0 0 0 0 0 0 0 0 0 0 0 0 0 0 0 0 0 0 0 0 0 0 0 0 0 0 0 0 0 0 0 0 0 0 0 0 0 0 0 0 0 0 0 0 0 0 0 0 0 0 0 0 0 0 0 0 0 0 0 0 0 0 0 0 0 0 0 0 0 0 0 0 0 0 0 0 0 0 0 0 0 0 0 0 0 0 0 0 0 0 0 0 0 0 0 0 0 0 0 0 0 0 0 0 0 0 0 0 0 0 0 0 0 0 0 0 0 0 0 0 0 0 0 0 0 0 0 0 0 0 0 0 0 0 0 0 0 0 0 0 0 0 0 0 0 0 0 0 0 0 0 0 0 0 0 0 0 0 0 0 0 0 0 0 0 0 0 0 0 0 0 0 0 0 0 0 0 0 0 0 0 0 0 0 0 0 0 0 0 0 0 0 0 0 0 0 0 0 0 0 0 0 0 0 0 0 0 0 0 0 0 0 0 0 0 0 0 0 0 0 0 0 0 0 0 0 0 0 0 0 0 0 0 0 0 0 0 0 0 0 0 0 0 0 0 0 0 0 0 0 0 0 0 0 0 0 0 0 0 0 0 0 0 0 0 0 0 0 0 0 0 0 0 0 0 0 0 0 0 0 0 0 0 0 0 0 0 0 0 
0.02 0.0199982 0.0199961 0.019994 0.0199922 0.0199909 0.0199904 0.019991 0.0199928 0.0199959 0.0200002 0.0200056 0.0200116 0.0200176 0.0200231 0.0200269 0.0200279 0.0200248 0.020016 0.0199995 0.0199733 0.0199349 0.0198818 0.0198112 0.0197201 0.0196056 0.0194646 0.0192942 0.0190913 0.0188531 0.0185766 0.0182586 0.0178965 0.0174904 0.0170457 0.0165834 0.0161527 0.0157895 0.0154295 0.0147742 0.0139769 0.0131593 0.0122772 0.011375 0.0101282 0.0095084 0.00819347 0.00656201 0.00591654 0 0 0 0 0 0 0 0 0 0 0 0 0 0 0 0 0 0 0 0 0 0 0 0 0 0 0 0 0 0 0 0 0 0 0 0 0 0 0 0 0 0 0 0 0 0 0 0 0 0 0 0 0 0 0 0 0 0 0 0 0 0 0 0 0 0 0 0 0 0 0 0 0 0 0 0 0 0 0 0 0 0 0 0 0 0 0 0 0 0 0 0 0 0 0 0 0 0 0 0 0 0 0 0 0 0 0 0 0 0 0 0 0 0 0 0 0 0 0 0 0 0 0 0 0 0 0 0 0 0 0 0 0 0 0 0 0 0 0 0 0 0 0 0 0 0 0 0 0 0 0 0 0 0 0 0 0 0 0 0 0 0 0 0 0 0 0 0 0 0 0 0 0 0 0 0 0 0 0 0 0 0 0 0 0 0 0 0 0 0 0 0 0 0 0 0 0 0 0 0 0 0 0 0 0 0 0 0 0 0 0 0 0 0 0 0 0 0 0 0 0 0 0 0 0 0 0 0 0 0 0 0 0 0 0 0 0 0 0 0 0 0 0 0 0 0 0 0 0 0 0 0 0 0 0 0 0 0 0 0 0 0 0 0 0 0 0 0 0 0 0 0 0 0 0 0 0 0 0 0 0 0 0 0 0 0 0 0 0 0 0 0 0 0 0 0 0 0 0 0 0 0 0 0 0 0 0 0 0 0 0 0 0 0 0 0 0 0 0 0 0 0 0 0 0 0 0 0 0 0 0 0 0 0 0 0 0 0 0 0 0 0 0 0 0 0 0 0 0 0 0 0 0 0 0 0 0 0 0 0 0 0 0 0 0 0 0 0 0 0 0 0 0 0 0 0 0 0 0 0 0 0 0 0 0 0 0 0 0 0 0 0 0 0 0 0 0 0 0 0 0 0 0 0 0 0 0 0 0 0 0 0 0 0 0 0 0 0 0 0 0 0 0 0 0 0 0 0 0 0 0 0 0 0 0 0 0 0 0 0 0 0 0 0 0 0 0 0 0 0 0 0 0 0 0 0 0 0 0 0 0 0 0 0 0 0 0 0 0 0 0 0 0 0 0 0 0 0 0 0 0 0 0 0 0 0 0 0 0 0 0 0 0 0 0 0 0 0 0 0 0 0 0 0 0 0 0 0 0 0 0 0 0 0 0 0 0 0 0 0 0 0 0 0 0 0 0 0 0 0 0 0 0 0 0 0 0 0 0 0 0 0 0 0 0 0 0 0 0 0 0 0 0 0 0 0 0 0 0 0 0 0 0 0 0 0 0 0 0 0 0 -1.0842e-19 
0.02 0.0199983 0.0199964 0.0199945 0.019993 0.019992 0.0199919 0.0199929 0.0199952 0.0199989 0.0200038 0.0200099 0.0200166 0.0200234 0.0200296 0.0200342 0.0200359 0.0200334 0.0200249 0.0200085 0.0199821 0.0199431 0.019889 0.019817 0.019724 0.0196072 0.0194635 0.01929 0.0190837 0.018842 0.0185619 0.0182404 0.0178754 0.017468 0.0170269 0.0165752 0.0161437 0.0157322 0.0152703 0.0146433 0.0138942 0.0130753 0.0122117 0.011329 0.010404 0.00923271 0.00784295 0.00635515 0.0049022 0.00298533 0.000570811 -0.00119124 0 0 0 0 0 0 0 0 0 0 0 0 0 0 0 0 0 0 0 0 0 0 0 0 0 0 0 0 0 0 0 0 0 0 0 0 0 0 0 0 0 0 0 0 0 0 0 0 0 0 0 0 0 0 0 0 0 0 0 0 0 0 0 0 0 0 0 0 0 0 0 0 0 0 0 0 0 0 0 0 0 0 0 0 0 0 0 0 0 0 0 0 0 0 0 0 0 0 0 0 0 0 0 0 0 0 0 0 0 0 0 0 0 0 0 0 0 0 0 0 0 0 0 0 0 0 0 0 0 0 0 0 0 0 0 0 0 0 0 0 0 0 0 0 0 0 0 0 0 0 0 0 0 0 0 0 0 0 0 0 0 0 0 0 0 0 0 0 0 0 0 0 0 0 0 0 0 0 0 0 0 0 0 0 0 0 0 0 0 0 0 0 0 0 0 0 0 0 0 0 0 0 0 0 0 0 0 0 0 0 0 0 0 0 0 0 0 0 0 0 0 0 0 0 0 0 0 0 0 0 0 0 0 0 0 0 0 0 0 0 0 0 0 0 0 0 0 0 0 0 0 0 0 0 0 0 0 0 0 0 0 0 0 0 0 0 0 0 0 0 0 0 0 0 0 0 0 0 0 0 0 0 0 0 0 0 0 0 0 0 0 0 0 0 0 0 0 0 0 0 0 0 0 0 0 0 0 0 0 0 0 0 0 0 0 0 0 0 0 0 0 0 0 0 0 0 0 0 0 0 0 0 0 0 0 0 0 0 0 0 0 0 0 0 0 0 0 0 0 0 0 0 0 0 0 0 0 0 0 0 0 0 0 0 0 0 0 0 0 0 0 0 0 0 0 0 0 0 0 0 0 0 0 0 0 0 0 0 0 0 0 0 0 0 0 0 0 0 0 0 0 0 0 0 0 0 0 0 0 0 0 0 0 0 0 0 0 0 0 0 0 0 0 0 0 0 0 0 0 0 0 0 0 0 0 0 0 0 0 0 0 0 0 0 0 0 0 0 0 0 0 0 0 0 0 0 0 0 0 0 0 0 0 0 0 0 0 0 0 0 0 0 0 0 0 0 0 0 0 0 0 0 0 0 0 0 0 0 0 0 0 0 0 0 0 0 0 0 0 0 0 0 0 0 0 0 0 0 0 0 0 0 0 0 0 0 0 0 0 0 0 0 0 0 0 0 0 0 0 0 0 0 0 0 0 0 0 0 0 0 0 0 0 0 0 0 0 0 0 0 0 0 0 0 0 0 0 0 0 0 0 0 0 0 0 0 0 -0.00418095 0 
0.02 0.0199984 0.0199967 0.019995 0.0199937 0.0199931 0.0199933 0.0199947 0.0199975 0.0200017 0.0200073 0.020014 0.0200214 0.020029 0.0200359 0.0200412 0.0200436 0.0200416 0.0200335 0.0200173 0.0199907 0.0199513 0.0198964 0.0198231 0.0197284 0.0196094 0.0194632 0.0192868 0.0190774 0.0188324 0.018549 0.0182246 0.0178576 0.0174501 0.0170124 0.0165632 0.0161191 0.015667 0.0151581 0.014536 0.0138085 0.0130017 0.0121413 0.0112372 0.0102477 0.00906589 0.00768814 0.00618479 0.00455929 0.0026911 0.000450626 -0.00198298 -0.0048979 -0.00841115 0 0 0 0 0 0 0 0 0 0 0 0 0 0 0 0 0 0 0 0 0 0 0 0 0 0 0 0 0 0 0 0 0 0 0 0 0 0 0 0 0 0 0 0 0 0 0 0 0 0 0 0 0 0 0 0 0 0 0 0 0 0 0 0 0 0 0 0 0 0 0 0 0 0 0 0 0 0 0 0 0 0 0 0 0 0 0 0 0 0 0 0 0 0 0 0 0 0 0 0 0 0 0 0 0 0 0 0 0 0 0 0 0 0 0 0 0 0 0 0 0 0 0 0 0 0 0 0 0 0 0 0 0 0 0 0 0 0 0 0 0 0 0 0 0 0 0 0 0 0 0 0 0 0 0 0 0 0 0 0 0 0 0 0 0 0 0 0 0 0 0 0 0 0 0 0 0 0 0 0 0 0 0 0 0 0 0 0 0 0 0 0 0 0 0 0 0 0 0 0 0 0 0 0 0 0 0 0 0 0 0 0 0 0 0 0 0 0 0 0 0 0 0 0 0 0 0 0 0 0 0 0 0 0 0 0 0 0 0 0 0 0 0 0 0 0 0 0 0 0 0 0 0 0 0 0 0 0 0 0 0 0 0 0 0 0 0 0 0 0 0 0 0 0 0 0 0 0 0 0 0 0 0 0 0 0 0 0 0 0 0 0 0 0 0 0 0 0 0 0 0 0 0 0 0 0 0 0 0 0 0 0 0 0 0 0 0 0 0 0 0 0 0 0 0 0 0 0 0 0 0 0 0 0 0 0 0 0 0 0 0 0 0 0 0 0 0 0 0 0 0 0 0 0 0 0 0 0 0 0 0 0 0 0 0 0 0 0 0 0 0 0 0 0 0 0 0 0 0 0 0 0 0 0 0 0 0 0 0 0 0 0 0 0 0 0 0 0 0 0 0 0 0 0 0 0 0 0 0 0 0 0 0 0 0 0 0 0 0 0 0 0 0 0 0 0 0 0 0 0 0 0 0 0 0 0 0 0 0 0 0 0 0 0 0 0 0 0 0 0 0 0 0 0 0 0 0 0 0 0 0 0 0 0 0 0 0 0 0 0 0 0 0 0 0 0 0 0 0 0 0 0 0 0 0 0 0 0 0 0 0 0 0 0 0 0 0 0 0 0 0 0 0 0 0 0 0 0 0 0 0 0 0 0 0 0 0 0 0 0 0 0 0 0 0 0 0 0 0 0 0 0 0 0 0 0 0 0 0 0 0 0 0 0 0 0 0 0 0 0 0 0 0 0 0 0 0 0 0 0 0 0 0 0 -0.013937 -0.00718219 -2.1684e-19 
0.02 0.0199985 0.019997 0.0199955 0.0199944 0.0199939 0.0199944 0.0199962 0.0199993 0.0200039 0.0200098 0.0200169 0.0200248 0.0200329 0.0200403 0.0200461 0.0200489 0.0200472 0.0200393 0.0200231 0.0199963 0.0199564 0.0199006 0.0198262 0.0197301 0.0196093 0.019461 0.0192823 0.0190704 0.0188227 0.018537 0.018211 0.0178437 0.0174377 0.017002 0.0165503 0.0160894 0.0156063 0.015068 0.0144421 0.0137246 0.0129267 0.0120612 0.0111278 0.0100892 0.008896 0.00751791 0.00597643 0.00425592 0.00231111 0.000122147 -0.00241914 -0.00517626 -0.00839293 -0.0124842 -0.0178308 0 0 0 0 0 0 0 0 0 0 0 0 0 0 0 0 0 0 0 0 0 0 0 0 0 0 0 0 0 0 0 0 0 0 0 0 0 0 0 0 0 0 0 0 0 0 0 0 0 0 0 0 0 0 0 0 0 0 0 0 0 0 0 0 0 0 0 0 0 0 0 0 0 0 0 0 0 0 0 0 0 0 0 0 0 0 0 0 0 0 0 0 0 0 0 0 0 0 0 0 0 0 0 0 0 0 0 0 0 0 0 0 0 0 0 0 0 0 0 0 0 0 0 0 0 0 0 0 0 0 0 0 0 0 0 0 0 0 0 0 0 0 0 0 0 0 0 0 0 0 0 0 0 0 0 0 0 0 0 0 0 0 0 0 0 0 0 0 0 0 0 0 0 0 0 0 0 0 0 0 0 0 0 0 0 0 0 0 0 0 0 0 0 0 0 0 0 0 0 0 0 0 0 0 0 0 0 0 0 0 0 0 0 0 0 0 0 0 0 0 0 0 0 0 0 0 0 0 0 0 0 0 0 0 0 0 0 0 0 0 0 0 0 0 0 0 0 0 0 0 0 0 0 0 0 0 0 0 0 0 0 0 0 0 0 0 0 0 0 0 0 0 0 0 0 0 0 0 0 0 0 0 0 0 0 0 0 0 0 0 0 0 0 0 0 0 0 0 0 0 0 0 0 0 0 0 0 0 0 0 0 0 0 0 0 0 0 0 0 0 0 0 0 0 0 0 0 0 0 0 0 0 0 0 0 0 0 0 0 0 0 0 0 0 0 0 0 0 0 0 0 0 0 0 0 0 0 0 0 0 0 0 0 0 0 0 0 0 0 0 0 0 0 0 0 0 0 0 0 0 0 0 0 0 0 0 0 0 0 0 0 0 0 0 0 0 0 0 0 0 0 0 0 0 0 0 0 0 0 0 0 0 0 0 0 0 0 0 0 0 0 0 0 0 0 0 0 0 0 0 0 0 0 0 0 0 0 0 0 0 0 0 0 0 0 0 0 0 0 0 0 0 0 0 0 0 0 0 0 0 0 0 0 0 0 0 0 0 0 0 0 0 0 0 0 0 0 0 0 0 0 0 0 0 0 0 0 0 0 0 0 0 0 0 0 0 0 0 0 0 0 0 0 0 0 0 0 0 0 0 0 -0.0525277 -0.054673 -0.0526977 -0.0507958 -0.0502416 -0.0514423 0 0 0 0 0 0 0 0 0 0 0 0 0 0 0 0 0 0 0 0 0 0 0 0 0 0 0 0 0 0 0 0 0 0 0 0 0 0 0 -0.0375501 -0.032812 -0.0339849 -0.0332418 -0.0292873 -0.0240608 -0.0172468 -0.00942643 -1.51788e-18 
0.02 0.0199986 0.0199971 0.0199958 0.0199948 0.0199945 0.0199951 0.019997 0.0200002 0.0200048 0.0200109 0.0200181 0.020026 0.0200341 0.0200415 0.0200473 0.02005 0.0200481 0.0200399 0.0200234 0.0199961 0.0199555 0.0198989 0.0198234 0.0197261 0.019604 0.0194542 0.019274 0.0190605 0.0188114 0.0185247 0.0181988 0.0178332 0.0174303 0.0169967 0.0165407 0.0160645 0.015557 0.0149956 0.0143609 0.0136455 0.0128495 0.0119744 0.0110091 0.00993364 0.00871336 0.00731677 0.00572147 0.00392701 0.00189173 -0.000389124 -0.00297193 -0.00587193 -0.00906019 -0.0126998 -0.016792 -0.0231414 -0.0298693 0 0 0 0 0 0 0 0 0 0 0 0 0 0 0 0 0 0 0 0 0 0 0 0 0 0 0 0 0 0 0 0 0 0 0 0 0 0 0 0 0 0 0 0 0 0 0 0 0 0 0 0 0 0 0 0 0 0 0 0 0 0 0 0 0 0 0 0 0 0 0 0 0 0 0 0 0 0 0 0 0 0 0 0 0 0 0 0 0 0 0 0 0 0 0 0 0 0 0 0 0 0 0 0 0 0 0 0 0 0 0 0 0 0 0 0 0 0 0 0 0 0 0 0 0 0 0 0 0 0 0 0 0 0 0 0 0 0 0 0 0 0 0 0 0 0 0 0 0 0 0 0 0 0 0 0 0 0 0 0 0 0 0 0 0 0 0 0 0 0 0 0 0 0 0 0 0 0 0 0 0 0 0 0 0 0 0 0 0 0 0 0 0 0 0 0 0 0 0 0 0 0 0 0 0 0 0 0 0 0 0 0 0 0 0 0 0 0 0 0 0 0 0 0 0 0 0 0 0 0 0 0 0 0 0 0 0 0 0 0 0 0 0 0 0 0 0 0 0 0 0 0 0 0 0 0 0 0 0 0 0 0 0 0 0 0 0 0 0 0 0 0 0 0 0 0 0 0 0 0 0 0 0 0 0 0 0 0 0 0 0 0 0 0 0 0 0 0 0 0 0 0 0 0 0 0 0 0 0 0 0 0 0 0 0 0 0 0 0 0 0 0 0 0 0 0 0 0 0 0 0 0 0 0 0 0 0 0 0 0 0 0 0 0 0 0 0 0 0 0 0 0 0 0 0 0 0 0 0 0 0 0 0 0 0 0 0 0 0 0 0 0 0 0 0 0 0 0 0 0 0 0 0 0 0 0 0 0 0 0 0 0 0 0 0 0 0 0 0 0 0 0 0 0 0 0 0 0 0 0 0 0 0 0 0 0 0 0 0 0 0 0 0 0 0 0 0 0 0 0 0 0 0 0 0 0 0 0 0 0 0 0 0 0 0 0 0 0 0 0 0 0 0 0 0 0 0 0 0 0 0 0 0 0 0 0 0 0 0 0 0 0 0 0 0 0 0 0 0 0 0 0 0 0 0 0 0 0 0 0 0 0 0 0 0 0 0 0 0 0 0 0 0 -0.0368369 -0.0410516 -0.0440458 -0.047629 -0.0500208 -0.0514611 -0.0485799 -0.0508143 -0.0516939 -0.0502579 -0.0499373 -0.0497565 -0.0496718 -0.0487571 -0.0471156 -0.0456317 -0.0443957 -0.0433254 -0.0423509 -0.0414639 -0.0405958 -0.0397607 -0.0389677 -0.0382176 -0.0375188 -0.0368817 -0.0363144 -0.035824 -0.0354134 -0.0350817 -0.0348259 -0.0346407 -0.0345186 -0.0344511 -0.0344293 -0.0344447 -0.0344899 -0.0345586 -0.0346466 -0.0347509 -0.0348704 -0.0350053 -0.0351564 -0.035325 -0.0355117 -0.0357152 -0.0359308 -0.0361483 -0.0363417 -0.0364711 -0.0357279 -0.0353852 -0.0355803 -0.0344497 -0.0329593 -0.0294575 -0.0246713 -0.0183195 -0.0105006 -3.46945e-18 
0.02 0.0199987 0.0199972 0.0199959 0.0199949 0.0199946 0.0199952 0.0199969 0.0199999 0.0200043 0.02001 0.0200168 0.0200243 0.0200319 0.0200387 0.0200437 0.0200457 0.0200431 0.020034 0.0200166 0.0199883 0.0199467 0.0198891 0.0198126 0.0197144 0.0195914 0.0194409 0.0192599 0.019046 0.0187968 0.0185106 0.0181866 0.0178247 0.0174266 0.0169961 0.016537 0.0160485 0.0155212 0.0149411 0.0142947 0.0135743 0.0127737 0.0118846 0.0108948 0.0097806 0.00852055 0.00708672 0.00544641 0.00357294 0.00144925 -0.000942423 -0.00362366 -0.00657365 -0.00992395 -0.013749 -0.0173793 -0.022852 -0.0292699 -0.0383997 -0.0482113 0 0 0 0 0 0 0 0 0 0 0 0 0 0 0 0 0 0 0 0 0 0 0 0 0 0 0 0 0 0 0 0 0 0 0 0 0 0 0 0 0 0 0 0 0 0 0 0 0 0 0 0 0 0 0 0 0 0 0 0 0 0 0 0 0 0 0 0 0 0 0 0 0 0 0 0 0 0 0 0 0 0 0 0 0 0 0 0 0 0 0 0 0 0 0 0 0 0 0 0 0 0 0 0 0 0 0 0 0 0 0 0 0 0 0 0 0 0 0 0 0 0 0 0 0 0 0 0 0 0 0 0 0 0 0 0 0 0 0 0 0 0 0 0 0 0 0 0 0 0 0 0 0 0 0 0 0 0 0 0 0 0 0 0 0 0 0 0 0 0 0 0 0 0 0 0 0 0 0 0 0 0 0 0 0 0 0 0 0 0 0 0 0 0 0 0 0 0 0 0 0 0 0 0 0 0 0 0 0 0 0 0 0 0 0 0 0 0 0 0 0 0 0 0 0 0 0 0 0 0 0 0 0 0 0 0 0 0 0 0 0 0 0 0 0 0 0 0 0 0 0 0 0 0 0 0 0 0 0 0 0 0 0 0 0 0 0 0 0 0 0 0 0 0 0 0 0 0 0 0 0 0 0 0 0 0 0 0 0 0 0 0 0 0 0 0 0 0 0 0 0 0 0 0 0 0 0 0 0 0 0 0 0 0 0 0 0 0 0 0 0 0 0 0 0 0 0 0 0 0 0 0 0 0 0 0 0 0 0 0 0 0 0 0 0 0 0 0 0 0 0 0 0 0 0 0 0 0 0 0 0 0 0 0 0 0 0 0 0 0 0 0 0 0 0 0 0 0 0 0 0 0 0 0 0 0 0 0 0 0 0 0 0 0 0 0 0 0 0 0 0 0 0 0 0 0 0 0 0 0 0 0 0 0 0 0 0 0 0 0 0 0 0 0 0 0 0 0 0 0 0 0 0 0 0 0 0 0 0 0 0 0 0 0 0 0 0 0 0 0 0 0 0 0 0 0 0 0 0 0 0 0 0 0 0 0 0 0 0 0 0 0 0 0 0 0 0 0 0 0 0 0 0 0 0 0 0 0 0 0 0 0 0 0 0 0 0 0 0 -0.0321288 -0.033501 -0.0376728 -0.0417438 -0.0446236 -0.0471748 -0.0494024 -0.0508369 -0.050943 -0.0499868 -0.0503475 -0.0497999 -0.0492159 -0.0489371 -0.048792 -0.0482206 -0.0469945 -0.0457612 -0.0445323 -0.0434579 -0.0424436 -0.0415244 -0.0406457 -0.039802 -0.0390121 -0.0382731 -0.0375905 -0.0369718 -0.036423 -0.0359479 -0.0355489 -0.0352241 -0.0349702 -0.0347824 -0.034654 -0.0345777 -0.0345457 -0.0345504 -0.0345849 -0.0346439 -0.0347231 -0.0348199 -0.0349331 -0.0350627 -0.0352093 -0.0353737 -0.035556 -0.0357542 -0.0359634 -0.0361729 -0.0363591 -0.0364533 -0.0361168 -0.0352922 -0.0353077 -0.0344476 -0.0324618 -0.0293093 -0.0248977 -0.0189031 -0.0110448 -4.11997e-18 
0.02 0.0199987 0.0199972 0.0199958 0.0199947 0.0199942 0.0199945 0.0199959 0.0199984 0.0200022 0.0200071 0.020013 0.0200195 0.0200259 0.0200314 0.0200351 0.0200356 0.0200315 0.020021 0.020002 0.0199723 0.0199293 0.0198705 0.019793 0.0196939 0.0195705 0.0194198 0.019239 0.0190258 0.0187778 0.0184937 0.0181731 0.0178161 0.017424 0.016998 0.0165383 0.016042 0.0155015 0.0149057 0.0142451 0.013512 0.0126979 0.0117897 0.0107704 0.00962064 0.00831686 0.00683239 0.00513558 0.00319474 0.000990269 -0.00150703 -0.00432714 -0.00749425 -0.0109896 -0.0149328 -0.0193264 -0.024205 -0.0297893 -0.0377372 -0.0473784 -0.0608202 -0.0782484 0 0 0 0 0 0 0 0 0 0 0 0 0 0 0 0 0 0 0 0 0 0 0 0 0 0 0 0 0 0 0 0 0 0 0 0 0 0 0 0 0 0 0 0 0 0 0 0 0 0 0 0 0 0 0 0 0 0 0 0 0 0 0 0 0 0 0 0 0 0 0 0 0 0 0 0 0 0 0 0 0 0 0 0 0 0 0 0 0 0 0 0 0 0 0 0 0 0 0 0 0 0 0 0 0 0 0 0 0 0 0 0 0 0 0 0 0 0 0 0 0 0 0 0 0 0 0 0 0 0 0 0 0 0 0 0 0 0 0 0 0 0 0 0 0 0 0 0 0 0 0 0 0 0 0 0 0 0 0 0 0 0 0 0 0 0 0 0 0 0 0 0 0 0 0 0 0 0 0 0 0 0 0 0 0 0 0 0 0 0 0 0 0 0 0 0 0 0 0 0 0 0 0 0 0 0 0 0 0 0 0 0 0 0 0 0 0 0 0 0 0 0 0 0 0 0 0 0 0 0 0 0 0 0 0 0 0 0 0 0 0 0 0 0 0 0 0 0 0 0 0 0 0 0 0 0 0 0 0 0 0 0 0 0 0 0 0 0 0 0 0 0 0 0 0 0 0 0 0 0 0 0 0 0 0 0 0 0 0 0 0 0 0 0 0 0 0 0 0 0 0 0 0 0 0 0 0 0 0 0 0 0 0 0 0 0 0 0 0 0 0 0 0 0 0 0 0 0 0 0 0 0 0 0 0 0 0 0 0 0 0 0 0 0 0 0 0 0 0 0 0 0 0 0 0 0 0 0 0 0 0 0 0 0 0 0 0 0 0 0 0 0 0 0 0 0 0 0 0 0 0 0 0 0 0 0 0 0 0 0 0 0 0 0 0 0 0 0 0 0 0 0 0 0 0 0 0 0 0 0 0 0 0 0 0 0 0 0 0 0 0 0 0 0 0 0 0 0 0 0 0 0 0 0 0 0 0 0 0 0 0 0 0 0 0 0 0 0 0 0 0 0 0 0 0 0 0 0 0 0 0 0 0 0 0 0 0 0 0 0 0 0 0 0 0 0 0 0 0 0 0 0 0 0 0 0 0 0 0 0 0 0 0 0 0 0 0 -0.0308412 -0.035266 -0.0394165 -0.0423605 -0.0446696 -0.0466397 -0.0486244 -0.049924 -0.050462 -0.0503276 -0.0499271 -0.0492995 -0.0487731 -0.0483242 -0.0479328 -0.047509 -0.0467535 -0.0457791 -0.0446716 -0.0436179 -0.0426168 -0.0416717 -0.0407747 -0.0399187 -0.0391207 -0.0383779 -0.0376965 -0.0370799 -0.0365347 -0.0360629 -0.0356659 -0.0353415 -0.0350858 -0.034894 -0.0347599 -0.0346767 -0.0346372 -0.0346344 -0.0346621 -0.0347152 -0.0347898 -0.0348835 -0.0349948 -0.0351236 -0.0352699 -0.0354339 -0.0356149 -0.03581 -0.0360131 -0.0362125 -0.0363846 -0.0364551 -0.0363238 -0.0359868 -0.0352907 -0.0341288 -0.032204 -0.0292198 -0.0250083 -0.0192478 -0.0113533 8.67362e-19 
0.02 0.0199986 0.0199971 0.0199955 0.0199942 0.0199933 0.0199932 0.0199939 0.0199956 0.0199984 0.0200022 0.0200067 0.0200116 0.0200163 0.02002 0.0200217 0.0200201 0.0200139 0.0200012 0.0199801 0.0199484 0.0199037 0.0198434 0.0197647 0.019665 0.0195413 0.019391 0.0192113 0.0189997 0.0187542 0.0184736 0.0181574 0.0178061 0.01742 0.0169988 0.0165403 0.0160398 0.0154898 0.0148821 0.0142078 0.0134588 0.012625 0.0116928 0.0106436 0.00945561 0.00810483 0.0065645 0.00480463 0.00279223 0.000496654 -0.0021052 -0.00506206 -0.00840063 -0.0121943 -0.0164671 -0.0213309 -0.0268797 -0.0330328 -0.0398386 -0.0491512 -0.0573372 -0.0745562 -0.0955715 -0.108039 0 0 0 0 0 0 0 0 0 0 0 0 0 0 0 0 0 0 0 0 0 0 0 0 0 0 0 0 0 0 0 0 0 0 0 0 0 0 0 0 0 0 0 0 0 0 0 0 0 0 0 0 0 0 0 0 0 0 0 0 0 0 0 0 0 0 0 0 0 0 0 0 0 0 0 0 0 0 0 0 0 0 0 0 0 0 0 0 0 0 0 0 0 0 0 0 0 0 0 0 0 0 0 0 0 0 0 0 0 0 0 0 0 0 0 0 0 0 0 0 0 0 0 0 0 0 0 0 0 0 0 0 0 0 0 0 0 0 0 0 0 0 0 0 0 0 0 0 0 0 0 0 0 0 0 0 0 0 0 0 0 0 0 0 0 0 0 0 0 0 0 0 0 0 0 0 0 0 0 0 0 0 0 0 0 0 0 0 0 0 0 0 0 0 0 0 0 0 0 0 0 0 0 0 0 0 0 0 0 0 0 0 0 0 0 0 0 0 0 0 0 0 0 0 0 0 0 0 0 0 0 0 0 0 0 0 0 0 0 0 0 0 0 0 0 0 0 0 0 0 0 0 0 0 0 0 0 0 0 0 0 0 0 0 0 0 0 0 0 0 0 0 0 0 0 0 0 0 0 0 0 0 0 0 0 0 0 0 0 0 0 0 0 0 0 0 0 0 0 0 0 0 0 0 0 0 0 0 0 0 0 0 0 0 0 0 0 0 0 0 0 0 0 0 0 0 0 0 0 0 0 0 0 0 0 0 0 0 0 0 0 0 0 0 0 0 0 0 0 0 0 0 0 0 0 0 0 0 0 0 0 0 0 0 0 0 0 0 0 0 0 0 0 0 0 0 0 0 0 0 0 0 0 0 0 0 0 0 0 0 0 0 0 0 0 0 0 0 0 0 0 0 0 0 0 0 0 0 0 0 0 0 0 0 0 0 0 0 0 0 0 0 0 0 0 0 0 0 0 0 0 0 0 0 0 0 0 0 0 0 0 0 0 0 0 0 0 0 0 0 0 0 0 0 0 0 0 0 0 0 0 0 0 0 0 0 0 0 0 0 0 0 0 0 0 0 0 0 0 0 0 0 0 0 0 0 0 0 0 0 0 0 0 -0.0339306 -0.0360572 -0.0364215 -0.0381318 -0.0414442 -0.0432354 -0.0444555 -0.046042 -0.0477369 -0.0488154 -0.0493897 -0.0494245 -0.0491157 -0.0487727 -0.0482642 -0.0477202 -0.0472776 -0.0469102 -0.0463725 -0.0456121 -0.0446905 -0.0437319 -0.0427751 -0.0418351 -0.0409328 -0.0400722 -0.0392687 -0.0385215 -0.0378381 -0.0372205 -0.0366751 -0.0362028 -0.0358041 -0.0354761 -0.0352153 -0.0350166 -0.0348745 -0.0347822 -0.0347335 -0.0347218 -0.0347413 -0.0347875 -0.0348567 -0.0349466 -0.0350556 -0.0351832 -0.0353289 -0.0354922 -0.0356714 -0.0358627 -0.0360588 -0.0362466 -0.0363995 -0.0364611 -0.0363333 -0.0359453 -0.0352453 -0.0340156 -0.0320704 -0.0291767 -0.0250925 -0.0194802 -0.0115658 -4.33681e-19 
0.02 0.0199985 0.0199968 0.019995 0.0199933 0.0199919 0.0199911 0.019991 0.0199917 0.0199932 0.0199955 0.0199983 0.0200012 0.0200038 0.0200051 0.0200043 0.0200001 0.0199913 0.0199759 0.0199523 0.0199182 0.0198714 0.0198093 0.0197294 0.0196289 0.0195053 0.0193557 0.0191776 0.0189686 0.0187266 0.0184505 0.0181396 0.0177941 0.0174137 0.0169969 0.0165401 0.0160375 0.0154819 0.0148648 0.0141778 0.0134117 0.0125556 0.0115951 0.0105119 0.00928383 0.00788537 0.00628798 0.00446001 0.00236803 -2.28221e-05 -0.00274757 -0.0058428 -0.00937585 -0.0133987 -0.0179997 -0.0232656 -0.0292162 -0.0360846 -0.0436706 -0.051843 -0.0613371 -0.0717655 -0.0855114 -0.104773 -0.128069 0 0 0 0 0 0 0 0 0 0 0 0 0 0 0 0 0 0 0 0 0 0 0 0 0 0 0 0 0 0 0 0 0 0 0 0 0 0 0 0 0 0 0 0 0 0 0 0 0 0 0 0 0 0 0 0 0 0 0 0 0 0 0 0 0 0 0 0 0 0 0 0 0 0 0 0 0 0 0 0 0 0 0 0 0 0 0 0 0 0 0 0 0 0 0 0 0 0 0 0 0 0 0 0 0 0 0 0 0 0 0 0 0 0 0 0 0 0 0 0 0 0 0 0 0 0 0 0 0 0 0 0 0 0 0 0 0 0 0 0 0 0 0 0 0 0 0 0 0 0 0 0 0 0 0 0 0 0 0 0 0 0 0 0 0 0 0 0 0 0 0 0 0 0 0 0 0 0 0 0 0 0 0 0 0 0 0 0 0 0 0 0 0 0 0 0 0 0 0 0 0 0 0 0 0 0 0 0 0 0 0 0 0 0 0 0 0 0 0 0 0 0 0 0 0 0 0 0 0 0 0 0 0 0 0 0 0 0 0 0 0 0 0 0 0 0 0 0 0 0 0 0 0 0 0 0 0 0 0 0 0 0 0 0 0 0 0 0 0 0 0 0 0 0 0 0 0 0 0 0 0 0 0 0 0 0 0 0 0 0 0 0 0 0 0 0 0 0 0 0 0 0 0 0 0 0 0 0 0 0 0 0 0 0 0 0 0 0 0 0 0 0 0 0 0 0 0 0 0 0 0 0 0 0 0 0 0 0 0 0 0 0 0 0 0 0 0 0 0 0 0 0 0 0 0 0 0 0 0 0 0 0 0 0 0 0 0 0 0 0 0 0 0 0 0 0 0 0 0 0 0 0 0 0 0 0 0 0 0 0 0 0 0 0 0 0 0 0 0 0 0 0 0 0 0 0 0 0 0 0 0 0 0 0 0 0 0 0 0 0 0 0 0 0 0 0 0 0 0 0 0 0 0 0 0 0 0 0 0 0 0 0 0 0 0 0 0 0 0 0 0 0 0 0 0 0 0 0 0 0 0 0 0 0 0 0 0 0 0 0 0 0 0 0 0 0 0 0 0 0 0 0 0 0 0 0 0 0 0 0 0 -0.0332055 -0.0358491 -0.0381389 -0.0395534 -0.0406658 -0.0424858 -0.0435303 -0.0441217 -0.0453299 -0.0466939 -0.0475893 -0.048191 -0.0484376 -0.0483825 -0.0480584 -0.0476106 -0.0471498 -0.0467292 -0.0463534 -0.045901 -0.0453109 -0.0445769 -0.0437468 -0.0428647 -0.041966 -0.0410846 -0.0402362 -0.0394373 -0.0386919 -0.038009 -0.0373917 -0.0368459 -0.0363716 -0.0359691 -0.035635 -0.0353664 -0.035158 -0.0350051 -0.0349012 -0.0348405 -0.0348172 -0.0348261 -0.034863 -0.0349246 -0.0350086 -0.0351135 -0.0352381 -0.0353816 -0.0355427 -0.0357189 -0.0359052 -0.0360932 -0.0362681 -0.0364034 -0.0364511 -0.0363313 -0.03594 -0.0351748 -0.0339389 -0.0320043 -0.0291646 -0.0251977 -0.0196749 -0.0117302 -2.1684e-19 
0.02 0.0199983 0.0199964 0.0199942 0.0199921 0.0199901 0.0199885 0.0199874 0.0199868 0.0199869 0.0199874 0.0199883 0.019989 0.019989 0.0199877 0.0199841 0.0199771 0.0199652 0.019947 0.0199205 0.0198837 0.0198345 0.0197705 0.0196892 0.0195882 0.0194647 0.0193161 0.01914 0.0189341 0.0186964 0.0184254 0.0181205 0.0177809 0.0174058 0.0169927 0.0165374 0.0160334 0.0154733 0.0148485 0.0141501 0.0133678 0.0124895 0.0115003 0.0103815 0.00911071 0.0076618 0.00600488 0.0041066 0.00193059 -0.00056227 -0.00341501 -0.0066766 -0.0104051 -0.0146754 -0.0195642 -0.0251249 -0.0314376 -0.0384386 -0.0462913 -0.0543654 -0.0632133 -0.0731216 -0.0813039 -0.0963664 -0.109764 -0.135844 -0.151482 0 0 0 0 0 0 0 0 0 0 0 0 0 0 0 0 0 0 0 0 0 0 0 0 0 0 0 0 0 0 0 0 0 0 0 0 0 0 0 0 0 0 0 0 0 0 0 0 0 0 0 0 0 0 0 0 0 0 0 0 0 0 0 0 0 0 0 0 0 0 0 0 0 0 0 0 0 0 0 0 0 0 0 0 0 0 0 0 0 0 0 0 0 0 0 0 0 0 0 0 0 0 0 0 0 0 0 0 0 0 0 0 0 0 0 0 -0.0889348 -0.0966855 -0.0996327 -0.102343 -0.105876 -0.109678 -0.117303 0 0 0 0 0 0 0 0 0 0 0 0 0 0 0 0 0 0 0 0 0 0 0 0 0 0 0 0 0 0 0 0 0 0 0 0 0 0 0 0 0 0 0 0 0 0 0 0 0 0 0 0 0 0 0 0 0 0 0 0 0 0 0 0 0 0 0 0 0 0 0 0 0 0 0 0 0 0 0 0 0 0 0 0 0 0 0 0 0 0 0 0 0 0 0 0 0 0 0 0 0 0 0 0 0 0 0 0 0 0 0 0 0 0 0 0 0 0 0 0 0 0 0 0 0 0 0 0 0 0 0 0 0 0 0 0 0 0 0 0 0 0 0 0 0 0 0 0 0 0 0 0 0 0 0 0 0 0 0 0 0 0 0 0 0 0 0 0 0 0 0 0 0 0 0 0 0 0 0 0 0 0 0 0 0 0 0 0 0 0 0 0 0 0 0 0 0 0 0 0 0 0 0 0 0 0 0 0 0 0 0 0 0 0 0 0 0 0 0 0 0 0 0 0 0 0 0 0 0 0 0 0 0 0 0 0 0 0 0 0 0 0 0 0 0 0 0 0 0 0 0 0 0 0 0 0 0 0 0 0 0 0 0 0 0 0 0 0 0 0 0 0 0 0 0 0 0 0 0 0 0 0 0 0 0 0 0 0 0 0 0 0 0 0 0 0 0 0 0 0 0 0 0 0 0 0 0 0 0 0 0 0 0 0 0 0 0 0 0 0 0 0 0 0 0 0 0 0 0 0 0 0 0 0 0 0 0 0 0 0 0 0 0 0 0 0 0 0 0 0 0 0 0 0 0 0 0 0 0 0 0 0 0 0 -0.0329508 -0.0337377 -0.0355112 -0.0379103 -0.0403564 -0.0406877 -0.041619 -0.0424211 -0.042864 -0.0435811 -0.0445231 -0.0455524 -0.0463176 -0.0469093 -0.0472606 -0.0473666 -0.0472269 -0.0469295 -0.0465692 -0.046199 -0.0458352 -0.0454375 -0.0449579 -0.0443581 -0.0436491 -0.042862 -0.0420347 -0.041202 -0.0403866 -0.0396075 -0.0388746 -0.038199 -0.0375863 -0.0370418 -0.0365658 -0.0361584 -0.0358168 -0.0355384 -0.0353182 -0.0351518 -0.0350335 -0.0349579 -0.03492 -0.0349153 -0.0349401 -0.0349914 -0.0350671 -0.0351654 -0.035285 -0.0354245 -0.0355819 -0.0357538 -0.0359345 -0.0361138 -0.0362752 -0.0363916 -0.036419 -0.0362893 -0.0359061 -0.0351479 -0.0338787 -0.0319527 -0.0291936 -0.0253258 -0.0198484 -0.0118616 -2.38524e-18 
0.02 0.0199981 0.0199959 0.0199933 0.0199906 0.0199879 0.0199854 0.0199831 0.0199813 0.0199797 0.0199784 0.0199771 0.0199755 0.019973 0.019969 0.0199625 0.0199525 0.0199375 0.0199163 0.0198868 0.0198474 0.0197958 0.0197299 0.0196473 0.0195456 0.0194222 0.0192749 0.0191011 0.0188985 0.0186654 0.0184001 0.0181014 0.017768 0.0173981 0.0169886 0.0165347 0.0160296 0.0154656 0.0148337 0.0141241 0.0133256 0.0124253 0.0114071 0.0102522 0.00893774 0.00743722 0.00571983 0.00375046 0.0014896 -0.00110683 -0.00408782 -0.00750812 -0.0114265 -0.0159102 -0.0210195 -0.0268302 -0.0333068 -0.0404947 -0.0483207 -0.0567267 -0.0654726 -0.0747467 -0.0844645 -0.0938927 -0.106589 -0.115162 -0.136695 -0.156433 -0.161587 0 0 0 0 0 0 0 0 0 0 0 0 0 0 0 0 0 0 0 0 0 0 0 0 0 0 0 0 0 0 0 0 0 0 0 0 0 0 0 0 0 0 0 0 0 0 0 0 0 0 0 0 0 0 0 0 0 0 0 0 0 0 0 0 0 0 0 0 0 0 0 0 0 0 0 0 0 0 0 0 0 0 0 0 0 0 0 0 -0.108541 -0.114642 -0.11569 -0.115822 -0.115612 -0.115211 -0.114681 -0.11408 -0.113474 -0.112924 -0.112451 -0.112037 -0.111628 -0.110951 -0.110122 -0.109222 -0.108332 -0.107488 -0.1067 -0.105978 -0.105344 -0.104793 -0.104285 -0.103791 -0.102883 -0.101348 -0.0982348 -0.0994043 -0.101081 -0.102627 -0.104751 -0.105201 -0.105012 -0.102591 -0.100723 -0.100278 -0.0997292 -0.098775 -0.097025 -0.0952267 -0.0941437 -0.0934307 -0.0929671 -0.092683 -0.0981228 0 0 -0.0816416 -0.0915988 -0.0937929 -0.10094 -0.128169 -0.161228 0 0 0 0 0 0 0 0 0 0 0 0 0 0 0 0 0 0 0 0 0 0 0 0 0 0 0 0 0 0 0 0 0 0 0 0 0 0 0 0 0 0 0 0 0 0 0 0 0 0 0 -0.0816843 -0.0888627 -0.0907111 -0.0906842 -0.0915293 -0.0927278 -0.0940488 -0.0954408 -0.0969581 -0.0986791 -0.100678 -0.102797 -0.103899 -0.105148 -0.120269 0 0 0 0 0 0 0 0 0 0 0 0 0 0 0 0 0 0 0 0 0 0 0 0 0 0 0 0 0 0 0 0 0 0 0 0 0 0 0 0 0 0 0 0 0 0 0 0 0 0 0 0 0 0 0 0 0 0 0 0 0 0 0 0 0 0 0 0 0 0 0 0 0 0 0 0 0 0 0 0 0 0 0 0 0 0 0 0 0 0 0 0 0 0 0 0 0 0 0 0 0 0 0 0 0 0 0 0 0 0 0 0 0 0 0 0 0 0 0 0 0 0 0 0 0 0 0 0 0 0 0 0 0 0 0 0 0 0 0 0 0 0 0 0 0 0 0 0 0 0 0 0 0 0 0 0 0 0 0 0 0 0 0 0 0 0 0 0 0 0 0 0 0 0 0 0 0 0 0 0 0 0 0 0 0 0 0 0 0 0 0 0 0 0 0 0 0 0 0 0 0 0 0 0 0 0 0 0 0 0 0 0 0 0 0 0 0 0 0 0 0 0 0 0 0 0 0 0 0 0 0 0 0 0 0 0 0 0 0 0 0 0 0 0 0 0 0 0 0 0 0 0 0 0 0 0 0 0 0 0 0 0 0 0 0 0 0 0 0 0 0 0 0 0 0 0 0 -0.0350682 -0.0361678 -0.0367616 -0.0383873 -0.0401315 -0.04081 -0.041316 -0.0417624 -0.0420215 -0.0423338 -0.0429884 -0.0436994 -0.0444207 -0.0450623 -0.0456443 -0.0460673 -0.0462944 -0.0463 -0.0461671 -0.045938 -0.0456476 -0.0453274 -0.0449737 -0.0445607 -0.0440554 -0.043453 -0.0427683 -0.0420297 -0.0412666 -0.0405033 -0.0397607 -0.0390538 -0.0383958 -0.0377943 -0.0372551 -0.0367793 -0.0363679 -0.0360185 -0.035729 -0.0354952 -0.0353129 -0.0351773 -0.0350839 -0.0350283 -0.0350068 -0.0350164 -0.0350546 -0.0351193 -0.0352087 -0.0353213 -0.0354551 -0.0356075 -0.0357744 -0.035949 -0.03612 -0.036269 -0.036367 -0.0363696 -0.0362119 -0.0358058 -0.0350429 -0.0337991 -0.031932 -0.0292532 -0.0254545 -0.0199969 -0.0119673 -1.95156e-18 