# vtk DataFile Version 2.0
iteration 1674
ASCII

DATASET STRUCTURED_POINTS
DIMENSIONS 621 64 1
ORIGIN 0 0 0
SPACING 0.00161031 0.00161031 0.00161031

POINT_DATA 39744
SCALARS P float 1
LOOKUP_TABLE default
0 0 0 0 0 0 0 0 0 0 0 0 0 0 0 0 0 0 0 0 0 0 0 0 0 0 0 0 0 0 0 0 0 0 0 0 0 0 0 0 0 0 0 0 0 0 0 0 0 0 0 0 0 0 0 0 0 0 0 0 0 0 0 0 0 0 0 0 0 0 0 0 0 0 0 0 0 0 0 0 0 0 0 0 0 0 0 0 0 0 0 0 0 0 0 0 0 0 0 0 0 0 0 0 0 0 0 0 0 0 0 0 0 0 0 0 0 0 0 0 0 0 0 0 0 0 0 0 0 0 0 0 0 0 0 0 0 0 0 0 0 0 0 0 0 0 0 0 0 0 0 0 0 0 0 0 0 0 0 0 0 0 0 0 0 0 0 0 0 0 0 0 0 0 0 0 0 0 0 0 0 0 0 0 0 0 0 0 0 0 0 0 0 0 0 0 0 0 0 0 0 0 0 0 0 0 0 0 0 0 0 0 0 0 0 0 0 0 0 0 0 0 0 0 0 0 0 0 0 0 0 0 0 0 0 0 0 0 0 0 0 0 0 0 0 0 0 0 0 0 0 0 0 0 0 0 0 0 0 0 0 0 0 0 0 0 0 0 0 0 0 0 0 0 0 0 0 0 0 0 0 0 0 0 0 0 0 0 0 0 0 0 0 0 0 0 0 0 0 0 0 0 0 0 0 0 0 0 0 0 0 0 0 0 0 0 0 0 0 0 0 0 0 0 0 0 0 0 0 0 0 0 0 0 0 0 0 0 0 0 0 0 0 0 0 0 0 0 0 0 0 0 0 0 0 0 0 0 0 0 0 0 0 0 0 0 0 0 0 0 0 0 0 0 0 0 0 0 0 0 0 0 0 0 0 0 0 0 0 0 0 0 0 0 0 0 0 0 0 0 0 0 0 0 0 0 0 0 0 0 0 0 0 0 0 0 0 0 0 0 0 0 0 0 0 0 0 0 0 0 0 0 0 0 0 0 0 0 0 0 0 0 0 0 0 0 0 0 0 0 0 0 0 0 0 0 0 0 0 0 0 0 0 0 0 0 0 0 0 0 0 0 0 0 0 0 0 0 0 0 0 0 0 0 0 0 0 0 0 0 0 0 0 0 0 0 0 0 0 0 0 0 0 0 0 0 0 0 0 0 0 0 0 0 0 0 0 0 0 0 0 0 0 0 0 0 0 0 0 0 0 0 0 0 0 0 0 0 0 0 0 0 0 0 0 0 0 0 0 0 0 0 0 0 0 0 0 0 0 0 0 0 0 0 0 0 0 0 0 0 0 0 0 0 0 0 0 0 0 0 0 0 0 0 0 0 0 0 0 0 0 0 0 0 0 0 0 0 0 0 0 0 0 0 0 0 0 0 0 0 0 0 0 0 0 0 0 0 0 0 0 
0.02 0.02 0.02 0.02 0.02 0.02 0.02 0.02 0.02 0.02 0.02 0.02 0.02 0.02 0.02 0.02 0.02 0.02 0.02 0.02 0.02 0.02 0.02 0.02 0.02 0.02 0.02 0.02 0.02 0.02 0.02 0.02 0.02 0.02 0.02 0.02 0.02 0.02 0.02 0.02 0.02 0.02 0.02 0.02 0.02 0.02 0.02 0.02 0.02 0.02 0.02 0.02 0.02 0.02 0.02 0.02 0.02 0.02 0.02 0.02 0.02 0.02 0.02 0.02 0.02 0.02 0.02 0.02 0.02 0.02 0.02 0.02 0.02 0.02 0.02 0.02 0.02 0.02 0.02 0.02 0.02 0.02 0.02 0.02 0.02 0.02 0.02 0.02 0.02 0.02 0.02 0.02 0.02 0.02 0.02 0.02 0.02 0.02 0.02 0.02 0.02 0.02 0.02 0.02 0.02 0.02 0.02 0.02 0.02 0.02 0.02 0.02 0.02 0.02 0.02 0.02 0.02 0.02 0.02 0.02 0.02 0.02 0.02 0.02 0.02 0.0199999 0.0199999 0.0199999 0.0199999 0.0199999 0.0199999 0.0199999 0.0199999 0.0199999 0.0199999 0.0199999 0.0199999 0.0199999 0.0199999 0.0199999 0.0199999 0.0199999 0.0199999 0.0199999 0.0199999 0.0199999 0.0199999 0.0199999 0.0199999 0.0199999 0.02 0.02 0.02 0.02 0.02 0.0200001 0.0200001 0.0200001 0.0200002 0.0200002 0.0200002 0.0200003 0.0200003 0.0200004 0.0200005 0.0200006 0.0200006 0.0200007 0.0200008 0.0200009 0.020001 0.0200011 0.0200013 0.0200014 0.0200015 0.0200017 0.0200018 0.020002 0.0200021 0.0200023 0.0200024 0.0200026 0.0200027 0.0200029 0.020003 0.0200031 0.0200032 0.0200033 0.0200034 0.0200034 0.0200035 0.0200035 0.0200034 0.0200033 0.0200032 0.020003 0.0200027 0.0200024 0.0200019 0.0200014 0.0200008 0.0200001 0.0199993 0.0199984 0.0199973 0.0199961 0.0199947 0.0199932 0.0199915 0.0199896 0.0199875 0.0199852 0.0199827 0.01998 0.019977 0.0199738 0.0199703 0.0199665 0.0199625 0.0199581 0.0199535 0.0199486 0.0199433 0.0199377 0.0199317 0.0199254 0.0199187 0.0199116 0.0199041 0.0198963 0.019888 0.0198793 0.0198702 0.0198607 0.0198507 0.0198403 0.0198295 0.0198182 0.0198064 0.0197942 0.0197815 0.0197684 0.0197547 0.0197406 0.019726 0.019711 0.0196954 0.0196794 0.0196629 0.0196459 0.0196284 0.0196104 0.0195919 0.019573 0.0195536 0.0195337 0.0195134 0.0194926 0.0194714 0.0194498 0.0194277 0.0194053 0.0193824 0.0193593 0.0193357 0.0193119 0.0192878 0.0192634 0.0192388 0.0192139 0.0191889 0.0191638 0.0191385 0.0191132 0.0190879 0.0190626 0.0190373 0.0190121 0.0189871 0.0189622 0.0189376 0.0189133 0.0188893 0.0188656 0.0188424 0.0188196 0.0187974 0.0187756 0.0187545 0.018734 0.0187142 0.018695 0.0186766 0.018659 0.0186422 0.0186262 0.0186111 0.0185969 0.0185835 0.0185711 0.0185597 0.0185491 0.0185395 0.0185309 0.0185232 0.0185166 0.0185108 0.018506 0.0185022 0.0184993 0.0184974 0.0184964 0.0184963 0.018497 0.0184987 0.0185012 0.0185046 0.0185088 0.0185138 0.0185197 0.0185263 0.0185336 0.0185417 0.0185505 0.01856 0.0185703 0.0185811 0.0185927 0.0186048 0.0186176 0.0186309 0.0186448 0.0186593 0.0186742 0.0186897 0.0187056 0.0187219 0.0187386 0.0187557 0.0187731 0.0187908 0.0188087 0.0188269 0.0188452 0.0188635 0.018882 0.0189004 0.0189188 0.0189371 0.0189552 0.0189731 0.0189907 0.0190079 0.0190247 0.0190409 0.0190565 0.0190713 0.0190852 0.0190978 0.0191086 0.0191183 0.019128 0.0191395 0.0191504 0.0191606 0.0191701 0.0191789 0.0191871 0.0191947 0.0192017 0.0192082 0.0192143 0.01922 0.0192254 0.0192307 0.0192359 0.0192413 0.0192469 0.0192529 0.0192594 0.0192666 0.0192746 0.0192833 0.0192925 0.0193019 0.0193106 0.0193172 0.0193195 0.0193144 0.0192978 0.0192645 0.0192091 0.0191261 0.0190098 0.0188608 0.0186798 0.0185049 0.0182988 0.0182021 0.0181564 0.019281 0.0210092 0.0187675 0 0 0 0 0 0 0 0 0 0 0 0 0 0 0 0 0 0 0 0 0 0 0 0 0 0 0 0 0 0 0 0 0 0 0 0 0 0 0 0 0 0 0 0 0 0 0 0 0 0 0 0 0 0 0 0 0 0 0 0 0 0 0 0 0 0 0 0 0 0 0 0 0 0 0 0 0 0 0 0 0 0 0 0 0 0 0 0 0 0 0 0 0 0 0 0 0 0 0 0 0 0 0 0 0 0 0 0 0 0 0 0 0 0 0 0 0 0 0 0 0 0 0 0 0 0 0 0 0 0 0 0 0 0 0 0 0 0 0 0 0 0 0 0 0 0 0 0 0 0 0 0 0 0 0 0 0 0 0 0 0 0 0 0 0 0 0 0 0 0 0 0 0 0 0 0 0 0 0 0 0 0 0 0 0 0 0 0 0 0 0 0 0 0 0 0 0 0 0 0 0 0 0 0 0 0 0 0 0 0 0 0 0 0 0 0 0 0 
0.02 0.02 0.02 0.02 0.02 0.02 0.02 0.02 0.02 0.02 0.02 0.02 0.02 0.02 0.02 0.02 0.02 0.02 0.02 0.02 0.02 0.02 0.02 0.02 0.02 0.02 0.02 0.02 0.02 0.02 0.02 0.02 0.02 0.02 0.02 0.02 0.02 0.02 0.02 0.02 0.02 0.02 0.02 0.02 0.02 0.02 0.02 0.02 0.02 0.02 0.02 0.02 0.02 0.02 0.02 0.02 0.02 0.02 0.02 0.02 0.02 0.02 0.02 0.02 0.02 0.02 0.02 0.02 0.02 0.02 0.02 0.02 0.02 0.02 0.02 0.02 0.02 0.02 0.02 0.02 0.02 0.02 0.02 0.02 0.02 0.02 0.02 0.02 0.02 0.02 0.02 0.02 0.02 0.02 0.02 0.02 0.02 0.02 0.02 0.02 0.02 0.02 0.02 0.02 0.02 0.02 0.02 0.02 0.02 0.02 0.02 0.02 0.02 0.02 0.02 0.02 0.02 0.02 0.02 0.02 0.02 0.02 0.02 0.02 0.02 0.02 0.0199999 0.0199999 0.0199999 0.0199999 0.0199999 0.0199999 0.0199999 0.0199999 0.0199999 0.0199999 0.0199999 0.0199999 0.0199999 0.0199999 0.0199999 0.0199999 0.0199999 0.0199999 0.0199999 0.0199999 0.0199999 0.0199999 0.0199999 0.02 0.02 0.02 0.02 0.02 0.02 0.0200001 0.0200001 0.0200001 0.0200002 0.0200002 0.0200003 0.0200003 0.0200004 0.0200004 0.0200005 0.0200006 0.0200007 0.0200008 0.0200009 0.020001 0.0200011 0.0200012 0.0200013 0.0200015 0.0200016 0.0200017 0.0200019 0.020002 0.0200022 0.0200023 0.0200025 0.0200026 0.0200028 0.0200029 0.0200031 0.0200032 0.0200033 0.0200034 0.0200035 0.0200036 0.0200036 0.0200036 0.0200035 0.0200034 0.0200033 0.0200031 0.0200029 0.0200025 0.0200021 0.0200016 0.020001 0.0200003 0.0199995 0.0199986 0.0199975 0.0199963 0.019995 0.0199935 0.0199918 0.0199899 0.0199878 0.0199855 0.019983 0.0199803 0.0199774 0.0199741 0.0199707 0.0199669 0.0199629 0.0199586 0.019954 0.019949 0.0199438 0.0199382 0.0199323 0.019926 0.0199193 0.0199123 0.0199048 0.019897 0.0198888 0.0198801 0.0198711 0.0198616 0.0198516 0.0198413 0.0198305 0.0198192 0.0198075 0.0197954 0.0197827 0.0197697 0.0197561 0.0197421 0.0197275 0.0197126 0.0196971 0.0196811 0.0196647 0.0196478 0.0196304 0.0196125 0.0195942 0.0195753 0.019556 0.0195363 0.0195161 0.0194955 0.0194744 0.0194529 0.019431 0.0194087 0.0193861 0.019363 0.0193397 0.019316 0.0192921 0.0192679 0.0192434 0.0192188 0.019194 0.0191691 0.019144 0.0191189 0.0190938 0.0190687 0.0190436 0.0190187 0.0189938 0.0189692 0.0189448 0.0189207 0.0188969 0.0188734 0.0188504 0.0188278 0.0188058 0.0187842 0.0187633 0.0187429 0.0187233 0.0187043 0.018686 0.0186686 0.0186519 0.018636 0.018621 0.0186069 0.0185936 0.0185812 0.0185698 0.0185593 0.0185497 0.0185411 0.0185334 0.0185267 0.0185209 0.0185161 0.0185122 0.0185092 0.0185071 0.018506 0.0185057 0.0185064 0.0185079 0.0185102 0.0185134 0.0185174 0.0185222 0.0185278 0.0185341 0.0185412 0.0185491 0.0185576 0.0185669 0.0185768 0.0185874 0.0185987 0.0186105 0.018623 0.0186361 0.0186497 0.0186638 0.0186785 0.0186937 0.0187093 0.0187254 0.0187418 0.0187586 0.0187758 0.0187932 0.0188109 0.0188288 0.0188469 0.018865 0.0188832 0.0189015 0.0189196 0.0189377 0.0189556 0.0189732 0.0189905 0.0190074 0.0190239 0.0190398 0.0190549 0.0190693 0.0190827 0.0190953 0.0191069 0.0191176 0.0191291 0.0191405 0.0191512 0.0191612 0.0191705 0.019179 0.019187 0.0191943 0.019201 0.0192071 0.0192128 0.0192181 0.0192231 0.0192278 0.0192325 0.0192372 0.0192421 0.0192474 0.0192531 0.0192595 0.0192665 0.0192743 0.0192825 0.0192908 0.0192984 0.0193038 0.019305 0.0192987 0.0192809 0.0192467 0.0191904 0.0191084 0.0189942 0.0188557 0.0186894 0.0185437 0.0184159 0.0183385 0.0181364 0.0184143 0.0191624 0.018192 0.0169917 0.0161084 0.0153646 0.014554 0.0136381 0.0125972 0.0114138 0.0100839 0.00865004 0.00742048 0.0062774 0.00603217 0 0 0 0 0 0 0 0 0 0 0 0 0 0 0 0 0 0 0 0 0 0 0 0 0 0 0 0 0 0 0 0 0 0 0 0 0 0 0 0 0 0 0 0 0 0 0 0 0 0 0 0 0 0 0 0 0 0 0 0 0 0 0 0 0 0 0 0 0 0 0 0 0 0 0 0 0 0 0 0 0 0 0 0 0 0 0 0 0 0 0 0 0 0 0 0 0 0 0 0 0 0 0 0 0 0 0 0 0 0 0 0 0 0 0 0 0 0 0 0 0 0 0 0 0 0 0 0 0 0 0 0 0 0 0 0 0 0 0 0 0 0 0 0 0 0 0 0 0 0 0 0 0 0 0 0 0 0 0 0 0 0 0 0 0 0 0 0 0 0 0 0 0 0 0 0 0 0 0 0 0 0 0 0 0 0 0 0 0 0 0 0 0 0 0 0 0 0 0 0 0 0 0 0 0 0 
0.02 0.02 0.02 0.02 0.02 0.02 0.02 0.02 0.02 0.02 0.02 0.02 0.02 0.02 0.02 0.02 0.02 0.02 0.02 0.02 0.02 0.02 0.02 0.02 0.02 0.02 0.02 0.02 0.02 0.02 0.02 0.02 0.02 0.02 0.02 0.02 0.02 0.02 0.02 0.02 0.02 0.02 0.02 0.02 0.02 0.02 0.02 0.02 0.02 0.02 0.02 0.02 0.02 0.02 0.02 0.02 0.02 0.02 0.02 0.02 0.02 0.02 0.02 0.02 0.02 0.02 0.02 0.02 0.02 0.02 0.02 0.02 0.02 0.02 0.02 0.02 0.02 0.02 0.02 0.02 0.02 0.02 0.02 0.02 0.02 0.02 0.02 0.02 0.02 0.02 0.02 0.02 0.02 0.02 0.02 0.02 0.02 0.02 0.02 0.02 0.02 0.02 0.02 0.02 0.02 0.02 0.02 0.02 0.02 0.02 0.02 0.02 0.02 0.02 0.02 0.02 0.02 0.02 0.02 0.02 0.02 0.02 0.02 0.02 0.02 0.02 0.02 0.0199999 0.0199999 0.0199999 0.0199999 0.0199999 0.0199999 0.0199999 0.0199999 0.0199999 0.0199999 0.0199999 0.0199999 0.0199999 0.0199999 0.0199999 0.0199999 0.0199999 0.0199999 0.0199999 0.0199999 0.02 0.02 0.02 0.02 0.02 0.02 0.0200001 0.0200001 0.0200001 0.0200001 0.0200002 0.0200002 0.0200003 0.0200003 0.0200004 0.0200004 0.0200005 0.0200006 0.0200006 0.0200007 0.0200008 0.0200009 0.020001 0.0200011 0.0200013 0.0200014 0.0200015 0.0200017 0.0200018 0.020002 0.0200021 0.0200023 0.0200024 0.0200026 0.0200028 0.0200029 0.0200031 0.0200032 0.0200033 0.0200035 0.0200036 0.0200036 0.0200037 0.0200037 0.0200037 0.0200037 0.0200036 0.0200035 0.0200033 0.020003 0.0200027 0.0200023 0.0200018 0.0200012 0.0200006 0.0199998 0.0199988 0.0199978 0.0199966 0.0199953 0.0199938 0.0199921 0.0199902 0.0199881 0.0199859 0.0199834 0.0199807 0.0199777 0.0199745 0.0199711 0.0199674 0.0199634 0.0199591 0.0199545 0.0199496 0.0199443 0.0199388 0.0199328 0.0199266 0.0199199 0.0199129 0.0199055 0.0198977 0.0198895 0.0198809 0.0198719 0.0198624 0.0198526 0.0198423 0.0198315 0.0198203 0.0198087 0.0197966 0.019784 0.019771 0.0197575 0.0197435 0.0197291 0.0197142 0.0196988 0.019683 0.0196667 0.0196499 0.0196326 0.0196148 0.0195966 0.019578 0.0195588 0.0195392 0.0195192 0.0194988 0.0194779 0.0194566 0.0194349 0.0194129 0.0193904 0.0193677 0.0193446 0.0193212 0.0192975 0.0192736 0.0192495 0.0192251 0.0192006 0.019176 0.0191513 0.0191265 0.0191018 0.019077 0.0190523 0.0190277 0.0190032 0.018979 0.0189549 0.0189312 0.0189077 0.0188847 0.018862 0.0188398 0.0188181 0.0187969 0.0187763 0.0187563 0.018737 0.0187183 0.0187004 0.0186832 0.0186668 0.0186512 0.0186365 0.0186226 0.0186095 0.0185974 0.0185861 0.0185758 0.0185663 0.0185578 0.0185502 0.0185435 0.0185378 0.018533 0.0185291 0.018526 0.0185239 0.0185227 0.0185223 0.0185228 0.0185242 0.0185264 0.0185293 0.0185331 0.0185377 0.0185431 0.0185492 0.018556 0.0185636 0.0185718 0.0185808 0.0185904 0.0186007 0.0186116 0.0186231 0.0186352 0.0186479 0.0186612 0.018675 0.0186893 0.0187041 0.0187194 0.0187351 0.0187512 0.0187677 0.0187845 0.0188016 0.0188189 0.0188365 0.0188542 0.018872 0.0188899 0.0189078 0.0189257 0.0189434 0.0189609 0.0189781 0.018995 0.0190115 0.0190275 0.0190429 0.0190577 0.0190717 0.0190851 0.0190977 0.0191098 0.0191218 0.0191335 0.0191446 0.019155 0.0191647 0.0191736 0.0191818 0.0191893 0.0191961 0.0192023 0.019208 0.0192131 0.0192178 0.0192221 0.0192261 0.01923 0.0192339 0.0192379 0.0192422 0.0192469 0.0192521 0.019258 0.0192644 0.0192712 0.0192781 0.0192841 0.0192879 0.0192873 0.0192792 0.0192596 0.0192239 0.019167 0.0190864 0.0189812 0.0188563 0.0187239 0.0186188 0.0185729 0.018471 0.0184279 0.0181695 0.018288 0.0176796 0.0168789 0.0160733 0.0153152 0.014485 0.0135521 0.0125011 0.0113343 0.0100644 0.00872012 0.0074477 0.00602339 0.00483516 0.00287872 0.000610806 -0.0018277 -0.00382244 0 0 0 0 0 0 0 0 0 0 0 0 0 0 0 0 0 0 0 0 0 0 0 0 0 0 0 0 0 0 0 0 0 0 0 0 0 0 0 0 0 0 0 0 0 0 0 0 0 0 0 0 0 0 0 0 0 0 0 0 0 0 0 0 0 0 0 0 0 0 0 0 0 0 0 0 0 0 0 0 0 0 0 0 0 0 0 0 0 0 0 0 0 0 0 0 0 0 0 0 0 0 0 0 0 0 0 0 0 0 0 0 0 0 0 0 0 0 0 0 0 0 0 0 0 0 0 0 0 0 0 0 0 0 0 0 0 0 0 0 0 0 0 0 0 0 0 0 0 0 0 0 0 0 0 0 0 0 0 0 0 0 0 0 0 0 0 0 0 0 0 0 0 0 0 0 0 0 0 0 0 0 0 0 0 0 0 0 0 0 0 0 0 0 0 0 0 0 0 0 0 -2.1684e-19 
0.02 0.02 0.02 0.02 0.02 0.02 0.02 0.02 0.02 0.02 0.02 0.02 0.02 0.02 0.02 0.02 0.02 0.02 0.02 0.02 0.02 0.02 0.02 0.02 0.02 0.02 0.02 0.02 0.02 0.02 0.02 0.02 0.02 0.02 0.02 0.02 0.02 0.02 0.02 0.02 0.02 0.02 0.02 0.02 0.02 0.02 0.02 0.02 0.02 0.02 0.02 0.02 0.02 0.02 0.02 0.02 0.02 0.02 0.02 0.02 0.02 0.02 0.02 0.02 0.02 0.02 0.02 0.02 0.02 0.02 0.02 0.02 0.02 0.02 0.02 0.02 0.02 0.02 0.02 0.02 0.02 0.02 0.02 0.02 0.02 0.02 0.02 0.02 0.02 0.02 0.02 0.02 0.02 0.02 0.02 0.02 0.02 0.02 0.02 0.02 0.02 0.02 0.02 0.02 0.02 0.02 0.02 0.02 0.02 0.02 0.02 0.02 0.02 0.02 0.02 0.02 0.02 0.02 0.02 0.02 0.02 0.02 0.02 0.02 0.02 0.02 0.02 0.02 0.02 0.0199999 0.0199999 0.0199999 0.0199999 0.0199999 0.0199999 0.0199999 0.0199999 0.0199999 0.0199999 0.0199999 0.0199999 0.0199999 0.0199999 0.0199999 0.02 0.02 0.02 0.02 0.02 0.02 0.02 0.02 0.0200001 0.0200001 0.0200001 0.0200001 0.0200002 0.0200002 0.0200003 0.0200003 0.0200004 0.0200004 0.0200005 0.0200006 0.0200006 0.0200007 0.0200008 0.0200009 0.020001 0.0200011 0.0200012 0.0200013 0.0200015 0.0200016 0.0200018 0.0200019 0.0200021 0.0200022 0.0200024 0.0200025 0.0200027 0.0200029 0.020003 0.0200032 0.0200033 0.0200035 0.0200036 0.0200037 0.0200038 0.0200039 0.0200039 0.0200039 0.0200039 0.0200038 0.0200037 0.0200035 0.0200033 0.0200029 0.0200026 0.0200021 0.0200015 0.0200008 0.02 0.0199991 0.0199981 0.0199969 0.0199956 0.0199941 0.0199924 0.0199906 0.0199885 0.0199863 0.0199838 0.0199811 0.0199782 0.019975 0.0199716 0.0199679 0.0199639 0.0199596 0.0199551 0.0199502 0.019945 0.0199395 0.0199336 0.0199273 0.0199207 0.0199138 0.0199064 0.0198987 0.0198905 0.019882 0.019873 0.0198636 0.0198538 0.0198436 0.0198329 0.0198218 0.0198102 0.0197982 0.0197857 0.0197728 0.0197594 0.0197456 0.0197313 0.0197165 0.0197013 0.0196856 0.0196694 0.0196528 0.0196357 0.0196181 0.0196001 0.0195816 0.0195627 0.0195434 0.0195236 0.0195034 0.0194828 0.0194618 0.0194405 0.0194187 0.0193966 0.0193742 0.0193515 0.0193285 0.0193052 0.0192817 0.0192579 0.019234 0.01921 0.0191858 0.0191616 0.0191373 0.019113 0.0190887 0.0190645 0.0190404 0.0190165 0.0189927 0.0189692 0.018946 0.0189231 0.0189005 0.0188784 0.0188567 0.0188355 0.0188148 0.0187947 0.0187752 0.0187563 0.0187381 0.0187206 0.0187039 0.0186879 0.0186726 0.0186582 0.0186447 0.0186319 0.01862 0.018609 0.0185989 0.0185896 0.0185813 0.0185738 0.0185672 0.0185615 0.0185567 0.0185528 0.0185498 0.0185476 0.0185463 0.0185458 0.0185461 0.0185473 0.0185493 0.018552 0.0185555 0.0185598 0.0185649 0.0185707 0.0185771 0.0185843 0.0185922 0.0186008 0.01861 0.0186199 0.0186303 0.0186414 0.0186531 0.0186654 0.0186782 0.0186915 0.0187054 0.0187198 0.0187346 0.0187498 0.0187654 0.0187815 0.0187978 0.0188145 0.0188314 0.0188485 0.0188658 0.0188831 0.0189006 0.018918 0.0189354 0.0189527 0.0189697 0.0189865 0.019003 0.019019 0.0190346 0.0190497 0.0190642 0.0190782 0.0190916 0.0191045 0.019117 0.0191291 0.0191405 0.0191512 0.0191612 0.0191703 0.0191788 0.0191864 0.0191933 0.0191996 0.0192051 0.01921 0.0192144 0.0192182 0.0192216 0.0192247 0.0192276 0.0192303 0.0192331 0.019236 0.0192393 0.0192429 0.0192471 0.0192516 0.0192565 0.0192612 0.0192649 0.0192663 0.0192632 0.0192524 0.0192303 0.0191929 0.0191368 0.0190611 0.0189711 0.0188695 0.0187728 0.0186852 0.0186422 0.0185709 0.0184151 0.0183105 0.0179307 0.0173832 0.0167188 0.0160088 0.0152506 0.014407 0.0134634 0.0124169 0.011282 0.0100698 0.00879521 0.00750416 0.00614369 0.00452198 0.00260133 0.000544917 -0.00150775 -0.00405238 -0.00686014 -0.0103311 -0.0133007 0 0 0 0 0 0 0 0 0 0 0 0 0 0 0 0 0 0 0 0 0 0 0 0 0 0 0 0 0 0 0 0 0 0 0 0 0 0 0 0 0 0 0 0 0 0 0 0 0 0 0 0 0 0 0 0 0 0 0 0 0 0 0 0 0 0 0 0 0 0 0 0 0 0 0 0 0 0 0 0 0 0 0 0 0 0 0 0 0 0 0 0 0 0 0 0 0 0 0 0 0 0 0 0 0 0 0 0 0 0 0 0 0 0 0 0 0 0 0 0 0 0 0 0 0 0 0 0 0 0 0 0 0 0 0 0 0 0 0 0 0 0 0 0 0 0 0 0 0 0 0 0 0 0 0 0 0 0 0 0 0 0 0 0 0 0 0 0 0 0 0 0 0 0 0 0 0 0 0 0 0 0 0 0 0 0 0 0 0 0 0 0 0 0 0 0 0 0 -4.33681e-19 
0.02 0.02 0.02 0.02 0.02 0.02 0.02 0.02 0.02 0.02 0.02 0.02 0.02 0.02 0.02 0.02 0.02 0.02 0.02 0.02 0.02 0.02 0.02 0.02 0.02 0.02 0.02 0.02 0.02 0.02 0.02 0.02 0.02 0.02 0.02 0.02 0.02 0.02 0.02 0.02 0.02 0.02 0.02 0.02 0.02 0.02 0.02 0.02 0.02 0.02 0.02 0.02 0.02 0.02 0.02 0.02 0.02 0.02 0.02 0.02 0.02 0.02 0.02 0.02 0.02 0.02 0.02 0.02 0.02 0.02 0.02 0.02 0.02 0.02 0.02 0.02 0.02 0.02 0.02 0.02 0.02 0.02 0.02 0.02 0.02 0.02 0.02 0.02 0.02 0.02 0.02 0.02 0.02 0.02 0.02 0.02 0.02 0.02 0.02 0.02 0.02 0.02 0.02 0.02 0.02 0.02 0.02 0.02 0.02 0.02 0.02 0.02 0.02 0.02 0.02 0.02 0.02 0.02 0.02 0.02 0.02 0.02 0.02 0.02 0.02 0.02 0.02 0.02 0.02 0.02 0.02 0.02 0.02 0.02 0.0199999 0.0199999 0.0199999 0.02 0.02 0.02 0.02 0.02 0.02 0.02 0.02 0.02 0.02 0.02 0.02 0.02 0.02 0.0200001 0.0200001 0.0200001 0.0200001 0.0200002 0.0200002 0.0200003 0.0200003 0.0200004 0.0200004 0.0200005 0.0200005 0.0200006 0.0200007 0.0200008 0.0200009 0.020001 0.0200011 0.0200012 0.0200013 0.0200014 0.0200016 0.0200017 0.0200019 0.020002 0.0200022 0.0200023 0.0200025 0.0200027 0.0200028 0.020003 0.0200032 0.0200033 0.0200035 0.0200036 0.0200038 0.0200039 0.020004 0.0200041 0.0200041 0.0200041 0.0200041 0.020004 0.0200039 0.0200037 0.0200035 0.0200032 0.0200028 0.0200024 0.0200018 0.0200011 0.0200004 0.0199995 0.0199985 0.0199973 0.019996 0.0199945 0.0199929 0.019991 0.019989 0.0199868 0.0199843 0.0199817 0.0199788 0.0199756 0.0199722 0.0199686 0.0199646 0.0199604 0.0199559 0.019951 0.0199459 0.0199404 0.0199345 0.0199283 0.0199218 0.0199149 0.0199076 0.0198999 0.0198918 0.0198833 0.0198745 0.0198652 0.0198554 0.0198453 0.0198347 0.0198237 0.0198122 0.0198003 0.019788 0.0197752 0.019762 0.0197483 0.0197342 0.0197196 0.0197045 0.019689 0.0196731 0.0196566 0.0196398 0.0196225 0.0196047 0.0195866 0.019568 0.0195489 0.0195295 0.0195096 0.0194894 0.0194688 0.0194478 0.0194265 0.0194048 0.0193829 0.0193606 0.0193381 0.0193153 0.0192923 0.0192691 0.0192458 0.0192223 0.0191987 0.0191751 0.0191514 0.0191277 0.0191041 0.0190805 0.0190571 0.0190338 0.0190107 0.0189878 0.0189653 0.018943 0.0189211 0.0188997 0.0188786 0.0188581 0.018838 0.0188185 0.0187996 0.0187813 0.0187637 0.0187467 0.0187305 0.018715 0.0187003 0.0186863 0.0186731 0.0186607 0.0186492 0.0186385 0.0186286 0.0186196 0.0186114 0.0186041 0.0185976 0.018592 0.0185872 0.0185833 0.0185802 0.0185779 0.0185765 0.0185758 0.018576 0.0185769 0.0185786 0.0185811 0.0185843 0.0185882 0.0185929 0.0185982 0.0186043 0.0186111 0.0186185 0.0186266 0.0186353 0.0186446 0.0186546 0.0186651 0.0186763 0.018688 0.0187003 0.018713 0.0187263 0.0187401 0.0187544 0.0187691 0.0187841 0.0187996 0.0188154 0.0188315 0.0188478 0.0188644 0.0188811 0.018898 0.0189149 0.0189319 0.0189487 0.0189655 0.0189821 0.0189984 0.0190145 0.0190302 0.0190455 0.0190603 0.0190747 0.0190886 0.0191021 0.019115 0.0191274 0.0191391 0.01915 0.0191602 0.0191695 0.0191781 0.0191859 0.0191929 0.019199 0.0192045 0.0192092 0.0192132 0.0192166 0.0192194 0.0192217 0.0192235 0.019225 0.0192263 0.0192275 0.0192287 0.0192301 0.0192317 0.0192336 0.0192357 0.0192379 0.0192398 0.0192405 0.0192386 0.019232 0.019218 0.019193 0.0191544 0.0191011 0.0190345 0.018961 0.0188866 0.0188099 0.0187393 0.018658 0.0185929 0.0184235 0.0181358 0.017721 0.0171984 0.0165947 0.0159132 0.0151576 0.0143112 0.0133732 0.0123488 0.0112449 0.0100803 0.00883392 0.0074689 0.00602524 0.00435791 0.00248218 0.000441215 -0.00172348 -0.00413333 -0.00676805 -0.00967186 -0.013468 -0.0182195 0 0 0 0 0 0 0 0 0 0 0 0 0 0 0 0 0 0 0 0 0 0 0 0 0 0 0 0 0 0 0 0 0 0 0 0 0 0 0 0 0 0 0 0 0 0 0 0 0 0 0 0 0 0 0 0 0 0 0 0 0 0 0 0 0 0 0 0 0 0 0 0 0 0 0 0 0 0 0 0 0 0 0 0 0 0 0 0 0 0 0 0 0 0 0 0 0 0 0 0 0 0 0 0 0 0 0 0 0 0 0 0 0 0 0 0 0 0 0 0 0 0 0 0 0 0 0 0 0 0 0 0 0 0 0 0 0 0 0 0 0 0 0 0 0 0 0 0 0 0 0 0 0 0 0 0 0 0 0 0 0 0 0 0 0 0 0 0 0 0 0 0 0 0 0 0 0 0 0 0 0 0 0 0 0 0 0 0 0 0 0 0 0 0 0 0 -0.00467748 0 
0.02 0.02 0.02 0.02 0.02 0.02 0.02 0.02 0.02 0.02 0.02 0.02 0.02 0.02 0.02 0.02 0.02 0.02 0.02 0.02 0.02 0.02 0.02 0.02 0.02 0.02 0.02 0.02 0.02 0.02 0.02 0.02 0.02 0.02 0.02 0.02 0.02 0.02 0.02 0.02 0.02 0.02 0.02 0.02 0.02 0.02 0.02 0.02 0.02 0.02 0.02 0.02 0.02 0.02 0.02 0.02 0.02 0.02 0.02 0.02 0.02 0.02 0.02 0.02 0.02 0.02 0.02 0.02 0.02 0.02 0.02 0.02 0.02 0.02 0.02 0.02 0.02 0.02 0.02 0.02 0.02 0.02 0.02 0.02 0.02 0.02 0.02 0.02 0.02 0.02 0.02 0.02 0.02 0.02 0.02 0.02 0.02 0.02 0.02 0.02 0.02 0.02 0.02 0.02 0.02 0.02 0.02 0.02 0.02 0.02 0.02 0.02 0.02 0.02 0.02 0.02 0.02 0.02 0.02 0.02 0.02 0.02 0.02 0.02 0.02 0.02 0.02 0.02 0.02 0.02 0.02 0.02 0.02 0.02 0.02 0.02 0.02 0.02 0.02 0.02 0.02 0.02 0.02 0.02 0.02 0.02 0.02 0.02 0.02 0.0200001 0.0200001 0.0200001 0.0200001 0.0200002 0.0200002 0.0200002 0.0200003 0.0200003 0.0200004 0.0200004 0.0200005 0.0200005 0.0200006 0.0200007 0.0200008 0.0200009 0.0200009 0.0200011 0.0200012 0.0200013 0.0200014 0.0200015 0.0200017 0.0200018 0.020002 0.0200021 0.0200023 0.0200025 0.0200026 0.0200028 0.020003 0.0200032 0.0200033 0.0200035 0.0200037 0.0200038 0.020004 0.0200041 0.0200042 0.0200043 0.0200043 0.0200043 0.0200043 0.0200043 0.0200042 0.020004 0.0200038 0.0200035 0.0200031 0.0200027 0.0200021 0.0200015 0.0200007 0.0199998 0.0199988 0.0199977 0.0199964 0.019995 0.0199934 0.0199916 0.0199896 0.0199874 0.019985 0.0199823 0.0199795 0.0199763 0.019973 0.0199694 0.0199655 0.0199613 0.0199568 0.019952 0.0199469 0.0199415 0.0199357 0.0199296 0.0199231 0.0199163 0.019909 0.0199014 0.0198935 0.0198851 0.0198763 0.0198671 0.0198575 0.0198475 0.019837 0.0198261 0.0198148 0.0198031 0.0197909 0.0197783 0.0197653 0.0197518 0.0197378 0.0197235 0.0197086 0.0196934 0.0196777 0.0196616 0.019645 0.019628 0.0196106 0.0195928 0.0195745 0.0195559 0.0195369 0.0195175 0.0194977 0.0194775 0.019457 0.0194362 0.0194151 0.0193937 0.019372 0.0193501 0.0193279 0.0193056 0.0192831 0.0192604 0.0192376 0.0192147 0.0191918 0.0191689 0.0191459 0.0191231 0.0191003 0.0190776 0.0190551 0.0190328 0.0190108 0.018989 0.0189676 0.0189465 0.0189258 0.0189055 0.0188857 0.0188664 0.0188476 0.0188294 0.0188119 0.0187949 0.0187786 0.018763 0.018748 0.0187338 0.0187204 0.0187077 0.0186957 0.0186846 0.0186742 0.0186647 0.0186559 0.018648 0.0186408 0.0186345 0.0186289 0.0186242 0.0186202 0.018617 0.0186147 0.0186131 0.0186122 0.0186121 0.0186128 0.0186141 0.0186162 0.0186191 0.0186226 0.0186268 0.0186317 0.0186373 0.0186435 0.0186503 0.0186579 0.018666 0.0186747 0.0186841 0.018694 0.0187045 0.0187156 0.0187272 0.0187394 0.018752 0.0187651 0.0187787 0.0187928 0.0188072 0.018822 0.0188372 0.0188526 0.0188684 0.0188843 0.0189005 0.0189168 0.0189331 0.0189495 0.0189659 0.0189821 0.0189983 0.0190142 0.0190299 0.0190452 0.0190603 0.0190749 0.0190891 0.0191028 0.019116 0.0191285 0.0191404 0.0191515 0.0191618 0.0191713 0.01918 0.0191879 0.0191949 0.0192011 0.0192064 0.0192109 0.0192146 0.0192176 0.0192198 0.0192214 0.0192223 0.0192226 0.0192225 0.019222 0.0192213 0.0192204 0.0192194 0.0192185 0.0192176 0.0192168 0.0192157 0.0192141 0.019211 0.0192051 0.0191945 0.0191766 0.019149 0.0191101 0.0190612 0.0190053 0.0189475 0.0188926 0.0188339 0.0187623 0.0186611 0.0184961 0.0182815 0.0179687 0.0175578 0.0170506 0.0164651 0.0157958 0.0150442 0.0142063 0.0132848 0.0122887 0.0112168 0.0100657 0.00882703 0.00745203 0.00591856 0.00422367 0.00236801 0.000328115 -0.00184721 -0.00420661 -0.00688621 -0.00968482 -0.0129395 -0.0166148 -0.0215747 -0.0274345 0 0 0 0 0 0 0 0 0 0 0 0 0 0 0 0 0 0 0 0 0 0 0 0 0 0 0 0 0 0 0 0 0 0 0 0 0 0 0 0 0 0 0 0 0 0 0 0 0 0 0 0 0 0 0 0 0 0 0 0 0 0 0 0 0 0 0 0 0 0 0 0 0 0 0 0 0 0 0 0 0 0 0 0 0 0 0 0 0 0 0 0 0 0 0 0 0 0 0 0 0 0 0 0 0 0 0 0 0 0 0 0 0 0 0 0 0 0 0 0 0 0 0 0 0 0 0 0 0 0 0 0 0 0 0 0 0 0 0 0 0 0 0 0 0 0 0 0 0 0 0 0 0 0 0 0 0 0 0 0 0 0 0 0 0 0 0 0 0 0 0 0 0 0 0 0 0 0 0 0 0 0 0 0 0 0 0 0 0 0 0 0 0 -0.0168918 -0.00855925 -2.1684e-19 
0.02 0.02 0.02 0.02 0.02 0.02 0.02 0.02 0.02 0.02 0.02 0.02 0.02 0.02 0.02 0.02 0.02 0.02 0.02 0.02 0.02 0.02 0.02 0.02 0.02 0.02 0.02 0.02 0.02 0.02 0.02 0.02 0.02 0.02 0.02 0.02 0.02 0.02 0.02 0.02 0.02 0.02 0.02 0.02 0.02 0.02 0.02 0.02 0.02 0.02 0.02 0.02 0.02 0.02 0.02 0.02 0.02 0.02 0.02 0.02 0.02 0.02 0.02 0.02 0.02 0.02 0.02 0.02 0.02 0.02 0.02 0.02 0.02 0.02 0.02 0.02 0.02 0.02 0.02 0.02 0.02 0.02 0.02 0.02 0.02 0.02 0.02 0.02 0.02 0.02 0.02 0.02 0.02 0.02 0.02 0.02 0.02 0.02 0.02 0.02 0.02 0.02 0.02 0.02 0.02 0.02 0.02 0.02 0.02 0.02 0.02 0.02 0.02 0.02 0.02 0.02 0.02 0.02 0.02 0.02 0.02 0.02 0.02 0.02 0.02 0.02 0.02 0.02 0.02 0.02 0.02 0.02 0.02 0.02 0.02 0.02 0.02 0.02 0.02 0.02 0.02 0.02 0.02 0.02 0.02 0.02 0.02 0.0200001 0.0200001 0.0200001 0.0200001 0.0200001 0.0200002 0.0200002 0.0200002 0.0200003 0.0200003 0.0200004 0.0200004 0.0200005 0.0200005 0.0200006 0.0200007 0.0200008 0.0200008 0.0200009 0.020001 0.0200011 0.0200013 0.0200014 0.0200015 0.0200016 0.0200018 0.0200019 0.0200021 0.0200023 0.0200024 0.0200026 0.0200028 0.0200029 0.0200031 0.0200033 0.0200035 0.0200037 0.0200038 0.020004 0.0200041 0.0200043 0.0200044 0.0200045 0.0200045 0.0200046 0.0200046 0.0200045 0.0200044 0.0200043 0.0200041 0.0200038 0.0200034 0.020003 0.0200025 0.0200018 0.0200011 0.0200003 0.0199993 0.0199982 0.0199969 0.0199955 0.0199939 0.0199921 0.0199902 0.019988 0.0199857 0.0199831 0.0199802 0.0199772 0.0199739 0.0199703 0.0199664 0.0199623 0.0199579 0.0199532 0.0199481 0.0199428 0.0199371 0.019931 0.0199246 0.0199179 0.0199108 0.0199033 0.0198954 0.0198871 0.0198785 0.0198694 0.01986 0.0198501 0.0198398 0.0198291 0.019818 0.0198064 0.0197944 0.019782 0.0197692 0.019756 0.0197423 0.0197282 0.0197137 0.0196987 0.0196833 0.0196675 0.0196513 0.0196347 0.0196177 0.0196003 0.0195825 0.0195643 0.0195458 0.0195269 0.0195076 0.019488 0.0194681 0.0194479 0.0194274 0.0194067 0.0193856 0.0193644 0.019343 0.0193214 0.0192996 0.0192777 0.0192558 0.0192337 0.0192117 0.0191896 0.0191675 0.0191455 0.0191237 0.0191019 0.0190803 0.019059 0.0190378 0.019017 0.0189964 0.0189763 0.0189565 0.0189371 0.0189182 0.0188997 0.0188818 0.0188644 0.0188477 0.0188315 0.0188159 0.018801 0.0187867 0.0187731 0.0187602 0.0187481 0.0187366 0.0187259 0.0187159 0.0187067 0.0186982 0.0186905 0.0186835 0.0186773 0.0186719 0.0186671 0.0186632 0.0186599 0.0186574 0.0186556 0.0186545 0.0186542 0.0186545 0.0186555 0.0186572 0.0186596 0.0186626 0.0186664 0.0186707 0.0186757 0.0186813 0.0186876 0.0186945 0.018702 0.01871 0.0187187 0.018728 0.0187378 0.0187481 0.018759 0.0187705 0.0187824 0.0187948 0.0188077 0.018821 0.0188348 0.0188489 0.0188634 0.0188782 0.0188932 0.0189086 0.0189241 0.0189398 0.0189555 0.0189713 0.0189872 0.0190029 0.0190186 0.0190341 0.0190493 0.0190643 0.0190789 0.0190932 0.0191069 0.0191202 0.0191328 0.0191447 0.0191559 0.0191663 0.019176 0.0191847 0.0191927 0.0191997 0.0192058 0.0192111 0.0192154 0.0192189 0.0192215 0.0192232 0.0192241 0.0192242 0.0192235 0.0192222 0.0192202 0.0192177 0.0192147 0.0192113 0.0192076 0.0192037 0.0191997 0.0191953 0.0191904 0.0191846 0.0191771 0.0191666 0.0191514 0.0191295 0.0190995 0.0190612 0.0190168 0.0189701 0.0189237 0.018876 0.0188208 0.018735 0.0186062 0.0184227 0.0181643 0.017824 0.0174041 0.0169038 0.0163244 0.0156632 0.0149195 0.014096 0.0131944 0.0122176 0.0111621 0.0100113 0.00874682 0.0073568 0.00581437 0.00411734 0.00226217 0.000231947 -0.00198162 -0.00436605 -0.00693367 -0.00986322 -0.0129795 -0.016002 -0.0201145 -0.0253385 -0.0332496 0 0 0 0 0 0 0 0 0 0 0 0 0 0 0 0 0 0 0 0 0 0 0 0 0 0 0 0 0 0 0 0 0 0 0 0 0 0 0 0 0 0 0 0 0 0 0 0 0 0 0 0 0 0 0 0 0 0 0 0 0 0 0 0 0 0 0 0 0 0 0 0 0 0 0 0 0 0 0 0 0 0 0 0 0 0 0 0 0 0 0 0 0 0 0 0 0 0 0 0 0 0 0 0 0 0 0 0 0 0 0 0 0 0 0 0 0 0 0 0 0 0 0 0 0 0 0 0 0 0 0 0 0 0 0 0 0 0 0 0 0 0 0 0 0 0 0 0 0 0 0 0 0 0 0 0 0 0 0 0 0 0 0 0 0 0 0 0 0 0 0 0 0 0 0 0 0 0 0 0 0 0 0 0 0 0 0 0 0 0 -0.0350456 -0.0295706 -0.0212772 -0.0116065 -6.50521e-19 