# vtk DataFile Version 2.0
iteration 351
ASCII

DATASET STRUCTURED_POINTS
DIMENSIONS 621 64 1
ORIGIN 0 0 0
SPACING 0.00161031 0.00161031 0.00161031

POINT_DATA 39744
SCALARS P float 1
LOOKUP_TABLE default
0 0 0 0 0 0 0 0 0 0 0 0 0 0 0 0 0 0 0 0 0 0 0 0 0 0 0 0 0 0 0 0 0 0 0 0 0 0 0 0 0 0 0 0 0 0 0 0 0 0 0 0 0 0 0 0 0 0 0 0 0 0 0 0 0 0 0 0 0 0 0 0 0 0 0 0 0 0 0 0 0 0 0 0 0 0 0 0 0 0 0 0 0 0 0 0 0 0 0 0 0 0 0 0 0 0 0 0 0 0 0 0 0 0 0 0 0 0 0 0 0 0 0 0 0 0 0 0 0 0 0 0 0 0 0 0 0 0 0 0 0 0 0 0 0 0 0 0 0 0 0 0 0 0 0 0 0 0 0 0 0 0 0 0 0 0 0 0 0 0 0 0 0 0 0 0 0 0 0 0 0 0 0 0 0 0 0 0 0 0 0 0 0 0 0 0 0 0 0 0 0 0 0 0 0 0 0 0 0 0 0 0 0 0 0 0 0 0 0 0 0 0 0 0 0 0 0 0 0 0 0 0 0 0 0 0 0 0 0 0 0 0 0 0 0 0 0 0 0 0 0 0 0 0 0 0 0 0 0 0 0 0 0 0 0 0 0 0 0 0 0 0 0 0 0 0 0 0 0 0 0 0 0 0 0 0 0 0 0 0 0 0 0 0 0 0 0 0 0 0 0 0 0 0 0 0 0 0 0 0 0 0 0 0 0 0 0 0 0 0 0 0 0 0 0 0 0 0 0 0 0 0 0 0 0 0 0 0 0 0 0 0 0 0 0 0 0 0 0 0 0 0 0 0 0 0 0 0 0 0 0 0 0 0 0 0 0 0 0 0 0 0 0 0 0 0 0 0 0 0 0 0 0 0 0 0 0 0 0 0 0 0 0 0 0 0 0 0 0 0 0 0 0 0 0 0 0 0 0 0 0 0 0 0 0 0 0 0 0 0 0 0 0 0 0 0 0 0 0 0 0 0 0 0 0 0 0 0 0 0 0 0 0 0 0 0 0 0 0 0 0 0 0 0 0 0 0 0 0 0 0 0 0 0 0 0 0 0 0 0 0 0 0 0 0 0 0 0 0 0 0 0 0 0 0 0 0 0 0 0 0 0 0 0 0 0 0 0 0 0 0 0 0 0 0 0 0 0 0 0 0 0 0 0 0 0 0 0 0 0 0 0 0 0 0 0 0 0 0 0 0 0 0 0 0 0 0 0 0 0 0 0 0 0 0 0 0 0 0 0 0 0 0 0 0 0 0 0 0 0 0 0 0 0 0 0 0 0 0 0 0 0 0 0 0 0 0 0 0 0 0 0 0 0 0 0 0 0 0 0 0 0 0 0 0 0 0 0 0 0 0 0 0 0 0 0 0 0 0 0 0 0 0 0 0 0 0 0 0 0 0 
0.02 0.0200003 0.0200006 0.0200011 0.0200018 0.0200027 0.0200038 0.0200053 0.020007 0.0200092 0.0200116 0.0200144 0.0200176 0.0200211 0.0200249 0.0200289 0.0200331 0.0200375 0.020042 0.0200467 0.0200515 0.0200565 0.0200618 0.0200676 0.0200739 0.0200812 0.0200895 0.0200993 0.0201108 0.0201245 0.0201408 0.0201601 0.0201828 0.0202094 0.0202401 0.0202754 0.0203154 0.0203602 0.0204098 0.020464 0.0205223 0.0205843 0.0206491 0.0207157 0.020783 0.0208494 0.0209134 0.020973 0.0210261 0.0210701 0.0211022 0.0211191 0.0211172 0.0210926 0.0210412 0.0209589 0.0208423 0.0206903 0.0205108 0.0203596 0.0205793 0.0234867 0 0 0 0 0 0 0 0 0 0 0 0 0 0 0 0 0 0 0 0 0 0 0 0 0 0 0 0 0 0 0 0 0 0 0 0 0 0 0 0 0 0 0 0 0 0 0 0 0 0 0 0 0 0 0 0 0 0 0 0 0 0 0 0 0 0 0 0 0 0 0 0 0 0 0 0 0 0 0 0 0 0 0 0 0 0 0 0 0 0 0 0 0 0 0 0 0 0 0 0 0 0 0 0 0 0 0 0 0 0 0 0 0 0 0 0 0 0 0 0 0 0 0 0 0 0 0 0 0 0 0 0 0 0 0 0 0 0 0 0 0 0 0 0 0 0 0 0 0 0 0 0 0 0 0 0 0 0 0 0 0 0 0 0 0 0 0 0 0 0 0 0 0 0 0 0 0 0 0 0 0 0 0 0 0 0 0 0 0 0 0 0 0 0 0 0 0 0 0 0 0 0 0 0 0 0 0 0 0 0 0 0 0 0 0 0 0 0 0 0 0 0 0 0 0 0 0 0 0 0 0 0 0 0 0 0 0 0 0 0 0 0 0 0 0 0 0 0 0 0 0 0 0 0 0 0 0 0 0 0 0 0 0 0 0 0 0 0 0 0 0 0 0 0 0 0 0 0 0 0 0 0 0 0 0 0 0 0 0 0 0 0 0 0 0 0 0 0 0 0 0 0 0 0 0 0 0 0 0 0 0 0 0 0 0 0 0 0 0 0 0 0 0 0 0 0 0 0 0 0 0 0 0 0 0 0 0 0 0 0 0 0 0 0 0 0 0 0 0 0 0 0 0 0 0 0 0 0 0 0 0 0 0 0 0 0 0 0 0 0 0 0 0 0 0 0 0 0 0 0 0 0 0 0 0 0 0 0 0 0 0 0 0 0 0 0 0 0 0 0 0 0 0 0 0 0 0 0 0 0 0 0 0 0 0 0 0 0 0 0 0 0 0 0 0 0 0 0 0 0 0 0 0 0 0 0 0 0 0 0 0 0 0 0 0 0 0 0 0 0 0 0 0 0 0 0 0 0 0 0 0 0 0 0 0 0 0 0 0 0 0 0 0 0 0 0 0 0 0 0 0 0 0 0 0 0 0 0 0 0 0 0 0 0 0 0 0 0 0 0 0 0 0 0 0 0 0 0 0 0 0 0 0 0 0 0 0 0 0 0 0 0 0 0 0 0 0 0 0 0 0 0 0 0 0 0 0 0 0 0 0 0 0 0 0 0 0 0 0 0 0 0 0 0 0 0 0 0 0 
0.02 0.0200003 0.0200006 0.0200011 0.0200018 0.0200027 0.0200038 0.0200052 0.020007 0.0200091 0.0200116 0.0200144 0.0200175 0.020021 0.0200247 0.0200287 0.0200329 0.0200372 0.0200417 0.0200464 0.0200511 0.0200561 0.0200613 0.020067 0.0200733 0.0200803 0.0200885 0.020098 0.0201092 0.0201226 0.0201384 0.0201572 0.0201794 0.0202053 0.0202353 0.0202697 0.0203087 0.0203525 0.0204009 0.0204537 0.0205106 0.0205711 0.0206343 0.0206993 0.0207648 0.0208296 0.0208919 0.02095 0.0210016 0.0210443 0.0210754 0.0210915 0.0210891 0.0210644 0.0210133 0.0209318 0.0208165 0.0206667 0.0204911 0.0203429 0.0204028 0.020794 0.0202947 0.0195349 0.0191558 0.0188304 0.0183123 0.0181153 0.0205972 0 0 0 0 0 0 0 0 0 0 0 0 0 0 0 0 0 0 0 0 0 0 0 0 0 0 0 0 0 0 0 0 0 0 0 0 0 0 0 0 0 0 0 0 0 0 0 0 0 0 0 0 0 0 0 0 0 0 0 0 0 0 0 0 0 0 0 0 0 0 0 0 0 0 0 0 0 0 0 0 0 0 0 0 0 0 0 0 0 0 0 0 0 0 0 0 0 0 0 0 0 0 0 0 0 0 0 0 0 0 0 0 0 0 0 0 0 0 0 0 0 0 0 0 0 0 0 0 0 0 0 0 0 0 0 0 0 0 0 0 0 0 0 0 0 0 0 0 0 0 0 0 0 0 0 0 0 0 0 0 0 0 0 0 0 0 0 0 0 0 0 0 0 0 0 0 0 0 0 0 0 0 0 0 0 0 0 0 0 0 0 0 0 0 0 0 0 0 0 0 0 0 0 0 0 0 0 0 0 0 0 0 0 0 0 0 0 0 0 0 0 0 0 0 0 0 0 0 0 0 0 0 0 0 0 0 0 0 0 0 0 0 0 0 0 0 0 0 0 0 0 0 0 0 0 0 0 0 0 0 0 0 0 0 0 0 0 0 0 0 0 0 0 0 0 0 0 0 0 0 0 0 0 0 0 0 0 0 0 0 0 0 0 0 0 0 0 0 0 0 0 0 0 0 0 0 0 0 0 0 0 0 0 0 0 0 0 0 0 0 0 0 0 0 0 0 0 0 0 0 0 0 0 0 0 0 0 0 0 0 0 0 0 0 0 0 0 0 0 0 0 0 0 0 0 0 0 0 0 0 0 0 0 0 0 0 0 0 0 0 0 0 0 0 0 0 0 0 0 0 0 0 0 0 0 0 0 0 0 0 0 0 0 0 0 0 0 0 0 0 0 0 0 0 0 0 0 0 0 0 0 0 0 0 0 0 0 0 0 0 0 0 0 0 0 0 0 0 0 0 0 0 0 0 0 0 0 0 0 0 0 0 0 0 0 0 0 0 0 0 0 0 0 0 0 0 0 0 0 0 0 0 0 0 0 0 0 0 0 0 0 0 0 0 0 0 0 0 0 0 0 0 0 0 0 0 0 0 0 0 0 0 0 0 0 0 0 0 0 0 0 0 0 0 0 0 0 0 0 0 0 0 0 0 0 0 0 0 0 0 0 0 0 0 0 0 0 0 0 0 0 0 0 0 0 0 0 0 0 0 0 0 0 0 0 0 0 0 0 0 0 0 
0.02 0.0200003 0.0200006 0.0200011 0.0200018 0.0200027 0.0200038 0.0200053 0.020007 0.0200092 0.0200116 0.0200144 0.0200176 0.020021 0.0200248 0.0200288 0.020033 0.0200373 0.0200418 0.0200464 0.0200511 0.020056 0.0200612 0.0200667 0.0200728 0.0200797 0.0200875 0.0200967 0.0201075 0.0201204 0.0201357 0.0201538 0.0201753 0.0202004 0.0202295 0.020263 0.0203009 0.0203434 0.0203904 0.0204417 0.020497 0.0205556 0.0206168 0.0206797 0.0207431 0.0208056 0.0208657 0.0209215 0.020971 0.0210119 0.0210412 0.021056 0.0210527 0.0210275 0.0209766 0.020896 0.0207825 0.020636 0.0204692 0.0203347 0.0203051 0.0203337 0.0200075 0.0195199 0.0191214 0.0187268 0.018285 0.0180004 0.0180975 0.0175652 0.016931 0.0160543 0.0175036 0 0 0 0 0 0 0 0 0 0 0 0 0 0 0 0 0 0 0 0 0 0 0 0 0 0 0 0 0 0 0 0 0 0 0 0 0 0 0 0 0 0 0 0 0 0 0 0 0 0 0 0 0 0 0 0 0 0 0 0 0 0 0 0 0 0 0 0 0 0 0 0 0 0 0 0 0 0 0 0 0 0 0 0 0 0 0 0 0 0 0 0 0 0 0 0 0 0 0 0 0 0 0 0 0 0 0 0 0 0 0 0 0 0 0 0 0 0 0 0 0 0 0 0 0 0 0 0 0 0 0 0 0 0 0 0 0 0 0 0 0 0 0 0 0 0 0 0 0 0 0 0 0 0 0 0 0 0 0 0 0 0 0 0 0 0 0 0 0 0 0 0 0 0 0 0 0 0 0 0 0 0 0 0 0 0 0 0 0 0 0 0 0 0 0 0 0 0 0 0 0 0 0 0 0 0 0 0 0 0 0 0 0 0 0 0 0 0 0 0 0 0 0 0 0 0 0 0 0 0 0 0 0 0 0 0 0 0 0 0 0 0 0 0 0 0 0 0 0 0 0 0 0 0 0 0 0 0 0 0 0 0 0 0 0 0 0 0 0 0 0 0 0 0 0 0 0 0 0 0 0 0 0 0 0 0 0 0 0 0 0 0 0 0 0 0 0 0 0 0 0 0 0 0 0 0 0 0 0 0 0 0 0 0 0 0 0 0 0 0 0 0 0 0 0 0 0 0 0 0 0 0 0 0 0 0 0 0 0 0 0 0 0 0 0 0 0 0 0 0 0 0 0 0 0 0 0 0 0 0 0 0 0 0 0 0 0 0 0 0 0 0 0 0 0 0 0 0 0 0 0 0 0 0 0 0 0 0 0 0 0 0 0 0 0 0 0 0 0 0 0 0 0 0 0 0 0 0 0 0 0 0 0 0 0 0 0 0 0 0 0 0 0 0 0 0 0 0 0 0 0 0 0 0 0 0 0 0 0 0 0 0 0 0 0 0 0 0 0 0 0 0 0 0 0 0 0 0 0 0 0 0 0 0 0 0 0 0 0 0 0 0 0 0 0 0 0 0 0 0 0 0 0 0 0 0 0 0 0 0 0 0 0 0 0 0 0 0 0 0 0 0 0 0 0 0 0 0 0 0 0 0 0 0 0 0 0 0 0 0 0 0 0 0 0 0 0 0 0 0 0 0 0 0 0 0 0 0 0 0 0 0 0 0 0 0 0 -5.42101e-20 
0.02 0.0200003 0.0200006 0.0200011 0.0200018 0.0200027 0.0200039 0.0200053 0.0200071 0.0200092 0.0200117 0.0200145 0.0200177 0.0200212 0.0200249 0.0200289 0.0200331 0.0200374 0.0200419 0.0200465 0.0200511 0.020056 0.020061 0.0200664 0.0200723 0.0200788 0.0200863 0.020095 0.0201053 0.0201175 0.020132 0.0201494 0.0201699 0.020194 0.0202221 0.0202543 0.0202908 0.0203318 0.020377 0.0204264 0.0204794 0.0205356 0.0205942 0.0206543 0.0207147 0.0207742 0.0208312 0.0208839 0.0209305 0.0209685 0.0209954 0.0210081 0.0210032 0.0209772 0.0209262 0.0208465 0.0207354 0.0205938 0.0204367 0.0203008 0.0202108 0.020116 0.0198744 0.0195219 0.0191557 0.0187755 0.0184073 0.0181308 0.0178873 0.0173455 0.0166648 0.0152092 0.0153175 0.0140067 0.0130862 0.0138174 0 0 0 0 0 0 0 0 0 0 0 0 0 0 0 0 0 0 0 0 0 0 0 0 0 0 0 0 0 0 0 0 0 0 0 0 0 0 0 0 0 0 0 0 0 0 0 0 0 0 0 0 0 0 0 0 0 0 0 0 0 0 0 0 0 0 0 0 0 0 0 0 0 0 0 0 0 0 0 0 0 0 0 0 0 0 0 0 0 0 0 0 0 0 0 0 0 0 0 0 0 0 0 0 0 0 0 0 0 0 0 0 0 0 0 0 0 0 0 0 0 0 0 0 0 0 0 0 0 0 0 0 0 0 0 0 0 0 0 0 0 0 0 0 0 0 0 0 0 0 0 0 0 0 0 0 0 0 0 0 0 0 0 0 0 0 0 0 0 0 0 0 0 0 0 0 0 0 0 0 0 0 0 0 0 0 0 0 0 0 0 0 0 0 0 0 0 0 0 0 0 0 0 0 0 0 0 0 0 0 0 0 0 0 0 0 0 0 0 0 0 0 0 0 0 0 0 0 0 0 0 0 0 0 0 0 0 0 0 0 0 0 0 0 0 0 0 0 0 0 0 0 0 0 0 0 0 0 0 0 0 0 0 0 0 0 0 0 0 0 0 0 0 0 0 0 0 0 0 0 0 0 0 0 0 0 0 0 0 0 0 0 0 0 0 0 0 0 0 0 0 0 0 0 0 0 0 0 0 0 0 0 0 0 0 0 0 0 0 0 0 0 0 0 0 0 0 0 0 0 0 0 0 0 0 0 0 0 0 0 0 0 0 0 0 0 0 0 0 0 0 0 0 0 0 0 0 0 0 0 0 0 0 0 0 0 0 0 0 0 0 0 0 0 0 0 0 0 0 0 0 0 0 0 0 0 0 0 0 0 0 0 0 0 0 0 0 0 0 0 0 0 0 0 0 0 0 0 0 0 0 0 0 0 0 0 0 0 0 0 0 0 0 0 0 0 0 0 0 0 0 0 0 0 0 0 0 0 0 0 0 0 0 0 0 0 0 0 0 0 0 0 0 0 0 0 0 0 0 0 0 0 0 0 0 0 0 0 0 0 0 0 0 0 0 0 0 0 0 0 0 0 0 0 0 0 0 0 0 0 0 0 0 0 0 0 0 0 0 0 0 0 0 0 0 0 0 0 0 0 0 0 0 0 0 0 0 0 0 0 0 0 0 0 0 0 0 0 0 0 0 0 0 0 0 0 0 0 0 0 0 0 0 -0.00410968 1.0842e-19 
0.02 0.0200003 0.0200006 0.0200011 0.0200018 0.0200027 0.0200039 0.0200054 0.0200072 0.0200093 0.0200118 0.0200146 0.0200178 0.0200212 0.020025 0.020029 0.0200332 0.0200375 0.0200419 0.0200465 0.0200511 0.0200558 0.0200607 0.0200659 0.0200714 0.0200776 0.0200846 0.0200927 0.0201022 0.0201136 0.0201272 0.0201435 0.020163 0.0201858 0.0202125 0.0202432 0.0202781 0.0203171 0.0203602 0.0204071 0.0204575 0.0205107 0.020566 0.0206225 0.0206792 0.0207348 0.0207878 0.0208367 0.0208794 0.0209137 0.0209372 0.020947 0.0209399 0.0209124 0.0208609 0.0207819 0.0206733 0.0205374 0.0203879 0.02025 0.0201352 0.0200085 0.0198057 0.019521 0.0191935 0.0188504 0.0185285 0.0182447 0.0179193 0.017421 0.0167803 0.0159809 0.0147702 0.0132552 0.011287 0.0115221 0.0107526 0.0113144 0 0 0 0 0 0 0 0 0 0 0 0 0 0 0 0 0 0 0 0 0 0 0 0 0 0 0 0 0 0 0 0 0 0 0 0 0 0 0 0 0 0 0 0 0 0 0 0 0 0 0 0 0 0 0 0 0 0 0 0 0 0 0 0 0 0 0 0 0 0 0 0 0 0 0 0 0 0 0 0 0 0 0 0 0 0 0 0 0 0 0 0 0 0 0 0 0 0 0 0 0 0 0 0 0 0 0 0 0 0 0 0 0 0 0 0 0 0 0 0 0 0 0 0 0 0 0 0 0 0 0 0 0 0 0 0 0 0 0 0 0 0 0 0 0 0 0 0 0 0 0 0 0 0 0 0 0 0 0 0 0 0 0 0 0 0 0 0 0 0 0 0 0 0 0 0 0 0 0 0 0 0 0 0 0 0 0 0 0 0 0 0 0 0 0 0 0 0 0 0 0 0 0 0 0 0 0 0 0 0 0 0 0 0 0 0 0 0 0 0 0 0 0 0 0 0 0 0 0 0 0 0 0 0 0 0 0 0 0 0 0 0 0 0 0 0 0 0 0 0 0 0 0 0 0 0 0 0 0 0 0 0 0 0 0 0 0 0 0 0 0 0 0 0 0 0 0 0 0 0 0 0 0 0 0 0 0 0 0 0 0 0 0 0 0 0 0 0 0 0 0 0 0 0 0 0 0 0 0 0 0 0 0 0 0 0 0 0 0 0 0 0 0 0 0 0 0 0 0 0 0 0 0 0 0 0 0 0 0 0 0 0 0 0 0 0 0 0 0 0 0 0 0 0 0 0 0 0 0 0 0 0 0 0 0 0 0 0 0 0 0 0 0 0 0 0 0 0 0 0 0 0 0 0 0 0 0 0 0 0 0 0 0 0 0 0 0 0 0 0 0 0 0 0 0 0 0 0 0 0 0 0 0 0 0 0 0 0 0 0 0 0 0 0 0 0 0 0 0 0 0 0 0 0 0 0 0 0 0 0 0 0 0 0 0 0 0 0 0 0 0 0 0 0 0 0 0 0 0 0 0 0 0 0 0 0 0 0 0 0 0 0 0 0 0 0 0 0 0 0 0 0 0 0 0 0 0 0 0 0 0 0 0 0 0 0 0 0 0 0 0 0 0 0 0 0 0 0 0 0 0 0 0 0 0 0 0 0 0 0 0 0 0 0 0 0 0 0 0 0 0 0 0 0 0 0 0 0 0 0 -0.013635 -0.00704311 -2.1684e-19 
0.02 0.0200003 0.0200006 0.0200012 0.0200019 0.0200028 0.0200039 0.0200054 0.0200072 0.0200093 0.0200118 0.0200146 0.0200178 0.0200213 0.020025 0.020029 0.0200332 0.0200375 0.0200419 0.0200463 0.0200508 0.0200554 0.02006 0.0200649 0.0200701 0.0200757 0.020082 0.0200894 0.020098 0.0201084 0.020121 0.020136 0.0201541 0.0201755 0.0202005 0.0202294 0.0202622 0.020299 0.0203396 0.0203836 0.0204308 0.0204805 0.020532 0.0205844 0.0206366 0.0206876 0.0207359 0.0207799 0.0208179 0.0208478 0.0208671 0.0208731 0.0208628 0.020833 0.0207803 0.0207015 0.0205952 0.0204644 0.0203204 0.0201809 0.0200538 0.0199178 0.0197346 0.019489 0.0191992 0.018896 0.0186078 0.0183331 0.0180101 0.0175635 0.0169609 0.0161652 0.0149656 0.0135553 0.0117737 0.0101084 0.00826471 0.008162 0.00693624 0 0 0 0 0 0 0 0 0 0 0 0 0 0 0 0 0 0 0 0 0 0 0 0 0 0 0 0 0 0 0 0 0 0 0 0 0 0 0 0 0 0 0 0 0 0 0 0 0 0 0 0 0 0 0 0 0 0 0 0 0 0 0 0 0 0 0 0 0 0 0 0 0 0 0 0 0 0 0 0 0 0 0 0 0 0 0 0 0 0 0 0 0 0 0 0 0 0 0 0 0 0 0 0 0 0 0 0 0 0 0 0 0 0 0 0 0 0 0 0 0 0 0 0 0 0 0 0 0 0 0 0 0 0 0 0 0 0 0 0 0 0 0 0 0 0 0 0 0 0 0 0 0 0 0 0 0 0 0 0 0 0 0 0 0 0 0 0 0 0 0 0 0 0 0 0 0 0 0 0 0 0 0 0 0 0 0 0 0 0 0 0 0 0 0 0 0 0 0 0 0 0 0 0 0 0 0 0 0 0 0 0 0 0 0 0 0 0 0 0 0 0 0 0 0 0 0 0 0 0 0 0 0 0 0 0 0 0 0 0 0 0 0 0 0 0 0 0 0 0 0 0 0 0 0 0 0 0 0 0 0 0 0 0 0 0 0 0 0 0 0 0 0 0 0 0 0 0 0 0 0 0 0 0 0 0 0 0 0 0 0 0 0 0 0 0 0 0 0 0 0 0 0 0 0 0 0 0 0 0 0 0 0 0 0 0 0 0 0 0 0 0 0 0 0 0 0 0 0 0 0 0 0 0 0 0 0 0 0 0 0 0 0 0 0 0 0 0 0 0 0 0 0 0 0 0 0 0 0 0 0 0 0 0 0 0 0 0 0 0 0 0 0 0 0 0 0 0 0 0 0 0 0 0 0 0 0 0 0 0 0 0 0 0 0 0 0 0 0 0 0 0 0 0 0 0 0 0 0 0 0 0 0 0 0 0 0 0 0 0 0 0 0 0 0 0 0 0 0 0 0 0 0 0 0 0 0 0 0 0 0 0 0 0 0 0 0 0 0 0 0 0 0 0 0 0 0 0 0 0 0 0 0 0 0 0 0 0 0 0 0 0 0 0 0 0 0 0 0 0 0 0 0 0 0 0 0 0 0 0 0 0 0 0 0 0 0 0 0 0 0 0 0 0 0 0 0 0 0 0 0 0 0 0 0 0 0 0 0 0 0 0 0 0 0 0 0 0 0 0 0 0 0 0 0 -0.0323267 -0.03137 -0.0278115 -0.0227744 -0.0163714 -0.00897151 -4.33681e-19 
0.02 0.0200003 0.0200006 0.0200012 0.0200019 0.0200028 0.0200039 0.0200054 0.0200072 0.0200093 0.0200118 0.0200146 0.0200177 0.0200212 0.0200249 0.0200289 0.020033 0.0200372 0.0200415 0.0200459 0.0200502 0.0200545 0.0200589 0.0200634 0.020068 0.020073 0.0200786 0.0200851 0.0200927 0.020102 0.0201132 0.0201268 0.0201432 0.0201628 0.0201859 0.0202126 0.020243 0.0202771 0.0203146 0.0203554 0.020399 0.0204447 0.0204919 0.0205396 0.020587 0.0206327 0.0206757 0.0207142 0.0207468 0.0207713 0.0207855 0.0207869 0.0207726 0.0207395 0.0206845 0.0206051 0.0205004 0.0203733 0.0202326 0.0200906 0.019953 0.0198084 0.019632 0.0194106 0.0191544 0.0188883 0.0186328 0.0183803 0.0180842 0.0176859 0.0171463 0.0163743 0.0152542 0.0137134 0.0120441 0.00983889 0.00757149 0.00495245 0.00345276 -1.69195e-05 0 0 0 0 0 0 0 0 0 0 0 0 0 0 0 0 0 0 0 0 0 0 0 0 0 0 0 0 0 0 0 0 0 0 0 0 0 0 0 0 0 0 0 0 0 0 0 0 0 0 0 0 0 0 0 0 0 0 0 0 0 0 0 0 0 0 0 0 0 0 0 0 0 0 0 0 0 0 0 0 0 0 0 0 0 0 0 0 0 0 0 0 0 0 0 0 0 0 0 0 0 0 0 0 0 0 0 0 0 0 0 0 0 0 0 0 0 0 0 0 0 0 0 0 0 0 0 0 0 0 0 0 0 0 0 0 0 0 0 0 0 0 0 0 0 0 0 0 0 0 0 0 0 0 0 0 0 0 0 0 0 0 0 0 0 0 0 0 0 0 0 0 0 0 0 0 0 0 0 0 0 0 0 0 0 0 0 0 0 0 0 0 0 0 0 0 0 0 0 0 0 0 0 0 0 0 0 0 0 0 0 0 0 0 0 0 0 0 0 0 0 0 0 0 0 0 0 0 0 0 0 0 0 0 0 0 0 0 0 0 0 0 0 0 0 0 0 0 0 0 0 0 0 0 0 0 0 0 0 0 0 0 0 0 0 0 0 0 0 0 0 0 0 0 0 0 0 0 0 0 0 0 0 0 0 0 0 0 0 0 0 0 0 0 0 0 0 0 0 0 0 0 0 0 0 0 0 0 0 0 0 0 0 0 0 0 0 0 0 0 0 0 0 0 0 0 0 0 0 0 0 0 0 0 0 0 0 0 0 0 0 0 0 0 0 0 0 0 0 0 0 0 0 0 0 0 0 0 0 0 0 0 0 0 0 0 0 0 0 0 0 0 0 0 0 0 0 0 0 0 0 0 0 0 0 0 0 0 0 0 0 0 0 0 0 0 0 0 0 0 0 0 0 0 0 0 0 0 0 0 0 0 0 0 0 0 0 0 0 0 0 0 0 0 0 0 0 0 0 0 0 0 0 0 0 0 0 0 0 0 0 0 0 0 -0.033409 -0.0415534 -0.0466936 -0.0507958 -0.0533901 -0.0553334 -0.0567328 -0.0576557 -0.0581724 -0.0583996 -0.0583514 -0.0580574 -0.0574056 -0.0562591 -0.0551664 -0.0540667 -0.0529538 -0.0518436 -0.0507646 -0.0521146 0 0 0 0 0 0 0 0 0 0 0 0 0 0 0 0 -0.0410276 -0.0376414 -0.0394362 -0.0402566 -0.0407761 -0.0410626 -0.0411773 -0.0412037 -0.0412169 -0.0412908 -0.0413517 -0.041404 -0.041458 -0.0415131 -0.0415578 -0.0415744 -0.0415401 -0.0414536 -0.0413345 -0.0411971 -0.0410395 -0.0408625 -0.040676 -0.0404898 -0.040309 -0.0401384 -0.0399862 -0.0398553 -0.0397457 -0.0396592 -0.0395966 -0.0395559 -0.0395347 -0.0395312 -0.039542 -0.0395633 -0.039591 -0.039621 -0.0396468 -0.0396606 -0.0396407 -0.0395683 -0.0394823 -0.0394177 -0.0393372 -0.0392292 -0.0390887 -0.0389091 -0.0386807 -0.0383882 -0.0380036 -0.0374651 -0.0366582 -0.0353459 -0.0337677 -0.0315943 -0.0281455 -0.0234305 -0.0174538 -0.00997328 6.50521e-19 
0.02 0.0200003 0.0200006 0.0200012 0.0200018 0.0200028 0.0200039 0.0200054 0.0200071 0.0200092 0.0200117 0.0200145 0.0200176 0.020021 0.0200247 0.0200286 0.0200326 0.0200368 0.0200409 0.0200451 0.0200492 0.0200532 0.0200572 0.0200611 0.0200652 0.0200695 0.0200742 0.0200797 0.0200862 0.0200941 0.0201039 0.0201159 0.0201304 0.0201479 0.0201686 0.0201926 0.0202201 0.0202511 0.0202852 0.0203223 0.0203618 0.0204031 0.0204456 0.0204883 0.0205303 0.0205704 0.0206075 0.0206401 0.0206666 0.0206851 0.0206935 0.0206893 0.0206699 0.0206324 0.0205741 0.0204928 0.0203883 0.020263 0.0201237 0.0199784 0.019831 0.0196755 0.0194991 0.0192925 0.0190614 0.0188235 0.0185937 0.0183612 0.018092 0.0177347 0.0172243 0.0165052 0.0154804 0.0140358 0.0121643 0.00990096 0.00713462 0.00399431 8.99387e-05 -0.00368541 -0.00989261 0 0 0 0 0 0 0 0 0 0 0 0 0 0 0 0 0 0 0 0 0 0 0 0 0 0 0 0 0 0 0 0 0 0 0 0 0 0 0 0 0 0 0 0 0 0 0 0 0 0 0 0 0 0 0 0 0 0 0 0 0 0 0 0 0 0 0 0 0 0 0 0 0 0 0 0 0 0 0 0 0 0 0 0 0 0 0 0 0 0 0 0 0 0 0 0 0 0 0 0 0 0 0 0 0 0 0 0 0 0 0 0 0 0 0 0 0 0 0 0 0 0 0 0 0 0 0 0 0 0 0 0 0 0 0 0 0 0 0 0 0 0 0 0 0 0 0 0 0 0 0 0 0 0 0 0 0 0 0 0 0 0 0 0 0 0 0 0 0 0 0 0 0 0 0 0 0 0 0 0 0 0 0 0 0 0 0 0 0 0 0 0 0 0 0 0 0 0 0 0 0 0 0 0 0 0 0 0 0 0 0 0 0 0 0 0 0 0 0 0 0 0 0 0 0 0 0 0 0 0 0 0 0 0 0 0 0 0 0 0 0 0 0 0 0 0 0 0 0 0 0 0 0 0 0 0 0 0 0 0 0 0 0 0 0 0 0 0 0 0 0 0 0 0 0 0 0 0 0 0 0 0 0 0 0 0 0 0 0 0 0 0 0 0 0 0 0 0 0 0 0 0 0 0 0 0 0 0 0 0 0 0 0 0 0 0 0 0 0 0 0 0 0 0 0 0 0 0 0 0 0 0 0 0 0 0 0 0 0 0 0 0 0 0 0 0 0 0 0 0 0 0 0 0 0 0 0 0 0 0 0 0 0 0 0 0 0 0 0 0 0 0 0 0 0 0 0 0 0 0 0 0 0 0 0 0 0 0 0 0 0 0 0 0 0 0 0 0 0 0 0 0 0 0 0 0 0 0 0 0 0 0 0 0 0 0 0 0 0 0 0 0 0 0 0 0 0 0 0 0 0 0 0 0 0 0 0 0 0 0 0 0 -0.0346625 -0.0377753 -0.0443923 -0.0477779 -0.0501953 -0.0528079 -0.0547764 -0.0561486 -0.0571287 -0.0576524 -0.0578901 -0.0578431 -0.0575198 -0.0569044 -0.0559937 -0.0549974 -0.0539596 -0.0528979 -0.0518314 -0.0507853 -0.0503488 -0.0501729 -0.0495748 -0.0485915 -0.0473996 -0.0463628 -0.0454051 -0.0446172 -0.0439166 -0.0432788 -0.0427179 -0.0422344 -0.0418314 -0.0415013 -0.0412374 -0.0410284 -0.0408015 -0.0403893 -0.039816 -0.0401314 -0.0404689 -0.0408478 -0.0410803 -0.0411745 -0.0412404 -0.0412383 -0.0413102 -0.0413746 -0.0414273 -0.0414749 -0.0415212 -0.0415499 -0.0415513 -0.0415112 -0.0414274 -0.0413154 -0.0411826 -0.0410314 -0.0408628 -0.040685 -0.0405067 -0.0403335 -0.0401692 -0.0400205 -0.0398913 -0.039783 -0.0396966 -0.0396325 -0.0395897 -0.039566 -0.0395593 -0.0395665 -0.0395838 -0.0396069 -0.0396311 -0.0396497 -0.0396541 -0.0396357 -0.0395866 -0.0395315 -0.0394703 -0.0393917 -0.0392861 -0.0391483 -0.0389718 -0.0387464 -0.0384526 -0.0380431 -0.0374321 -0.0365457 -0.0353179 -0.0337835 -0.0315437 -0.0282432 -0.023813 -0.018106 -0.0105676 1.0842e-18 
0.02 0.0200003 0.0200006 0.0200011 0.0200018 0.0200027 0.0200039 0.0200053 0.020007 0.0200091 0.0200115 0.0200143 0.0200173 0.0200207 0.0200243 0.0200281 0.020032 0.020036 0.02004 0.0200439 0.0200477 0.0200513 0.0200548 0.0200582 0.0200616 0.020065 0.0200689 0.0200733 0.0200786 0.0200851 0.0200932 0.0201033 0.0201158 0.0201308 0.0201487 0.0201697 0.0201939 0.0202212 0.0202514 0.0202842 0.0203191 0.0203557 0.020393 0.0204304 0.0204667 0.0205009 0.0205318 0.020558 0.020578 0.02059 0.0205918 0.0205813 0.0205558 0.0205128 0.0204498 0.0203652 0.020259 0.0201335 0.0199933 0.0198438 0.0196875 0.0195218 0.0193404 0.0191392 0.0189224 0.0187014 0.0184852 0.0182683 0.0180162 0.0176828 0.0172092 0.0165094 0.0154984 0.0141167 0.0122486 0.00991903 0.00698373 0.00336944 -0.00129718 -0.00683755 -0.0134697 -0.0174581 0 0 0 0 0 0 0 0 0 0 0 0 0 0 0 0 0 0 0 0 0 0 0 0 0 0 0 0 0 0 0 0 0 0 0 0 0 0 0 0 0 0 0 0 0 0 0 0 0 0 0 0 0 0 0 0 0 0 0 0 0 0 0 0 0 0 0 0 0 0 0 0 0 0 0 0 0 0 0 0 0 0 0 0 0 0 0 0 0 0 0 0 0 0 0 0 0 0 0 0 0 0 0 0 0 0 0 0 0 0 0 0 0 0 0 0 0 0 0 0 0 0 0 0 0 0 0 0 0 0 0 0 0 0 0 0 0 0 0 0 0 0 0 0 0 0 0 0 0 0 0 0 0 0 0 0 0 0 0 0 0 0 0 0 0 0 0 0 0 0 0 0 0 0 0 0 0 0 0 0 0 0 0 0 0 0 0 0 0 0 0 0 0 0 0 0 0 0 0 0 0 0 0 0 0 0 0 0 0 0 0 0 0 0 0 0 0 0 0 0 0 0 0 0 0 0 0 0 0 0 0 0 0 0 0 0 0 0 0 0 0 0 0 0 0 0 0 0 0 0 0 0 0 0 0 0 0 0 0 0 0 0 0 0 0 0 0 0 0 0 0 0 0 0 0 0 0 0 0 0 0 0 0 0 0 0 0 0 0 0 0 0 0 0 0 0 0 0 0 0 0 0 0 0 0 0 0 0 0 0 0 0 0 0 0 0 0 0 0 0 0 0 0 0 0 0 0 0 0 0 0 0 0 0 0 0 0 0 0 0 0 0 0 0 0 0 0 0 0 0 0 0 0 0 0 0 0 0 0 0 0 0 0 0 0 0 0 0 0 0 0 0 0 0 0 0 0 0 0 0 0 0 0 0 0 0 0 0 0 0 0 0 0 0 0 0 0 0 0 0 0 0 0 0 0 0 0 0 0 0 0 0 0 0 0 0 0 0 0 0 0 0 0 0 0 0 0 0 0 0 0 0 0 0 0 0 0 0 0 -0.0377603 -0.0379847 -0.0398042 -0.0421312 -0.0449874 -0.047716 -0.0496072 -0.0520377 -0.0540266 -0.0553612 -0.0563406 -0.0569238 -0.0572034 -0.0571892 -0.0569024 -0.0563572 -0.0555997 -0.0547178 -0.0537677 -0.0527789 -0.0517731 -0.0507754 -0.0499553 -0.0495089 -0.0491572 -0.0484284 -0.0474507 -0.046536 -0.045649 -0.044865 -0.044159 -0.0435148 -0.0429503 -0.0424594 -0.0420506 -0.0417121 -0.0414365 -0.0411937 -0.0409118 -0.0405523 -0.0402283 -0.0403622 -0.0406094 -0.0408825 -0.0410827 -0.0411605 -0.0412278 -0.041254 -0.0413272 -0.0413904 -0.0414447 -0.0414856 -0.0415219 -0.0415357 -0.0415227 -0.0414738 -0.0413924 -0.0412853 -0.0411566 -0.0410106 -0.0408523 -0.0406873 -0.0405201 -0.040355 -0.0402003 -0.04006 -0.0399364 -0.039831 -0.039746 -0.0396816 -0.0396368 -0.0396099 -0.0395989 -0.0396006 -0.0396114 -0.0396269 -0.0396421 -0.0396514 -0.0396477 -0.0396283 -0.0395927 -0.0395459 -0.0394846 -0.0394022 -0.039293 -0.039152 -0.038972 -0.0387411 -0.0384337 -0.0379977 -0.0373591 -0.0364618 -0.0352633 -0.0337024 -0.0314723 -0.0283199 -0.0241029 -0.0185506 -0.0109467 -2.1684e-18 
0.02 0.0200003 0.0200006 0.0200011 0.0200018 0.0200027 0.0200038 0.0200052 0.0200069 0.0200089 0.0200113 0.0200139 0.0200169 0.0200202 0.0200237 0.0200273 0.0200311 0.0200349 0.0200386 0.0200422 0.0200456 0.0200488 0.0200518 0.0200545 0.0200571 0.0200598 0.0200626 0.0200659 0.0200699 0.0200749 0.0200813 0.0200893 0.0200994 0.0201118 0.0201267 0.0201443 0.0201647 0.0201878 0.0202135 0.0202416 0.0202716 0.0203029 0.0203347 0.0203663 0.0203967 0.0204247 0.0204492 0.0204688 0.0204819 0.0204868 0.0204816 0.0204639 0.0204315 0.0203818 0.0203129 0.0202234 0.0201134 0.0199849 0.0198412 0.0196856 0.0195199 0.0193431 0.019153 0.0189489 0.0187342 0.0185156 0.0182985 0.0180769 0.0178277 0.0175038 0.0170427 0.0163707 0.0153975 0.0140233 0.0121848 0.00977647 0.00675167 0.00279869 -0.00210958 -0.0083416 -0.0160749 -0.0258106 -0.0326086 0 0 0 0 0 0 0 0 0 0 0 0 0 0 0 0 0 0 0 0 0 0 0 0 0 0 0 0 0 0 0 0 0 0 0 0 0 0 0 0 0 0 0 0 0 0 0 0 0 0 0 0 0 0 0 0 0 0 0 0 0 0 0 0 0 0 0 0 0 0 0 0 0 0 0 0 0 0 0 0 0 0 0 0 0 0 0 0 0 0 0 0 0 0 0 0 0 0 0 0 0 0 0 0 0 0 0 0 0 0 0 0 0 0 0 0 0 0 0 0 0 0 0 0 0 0 0 0 0 0 0 0 0 0 0 0 0 0 0 0 0 0 0 0 0 0 0 0 0 0 0 0 0 0 0 0 0 0 0 0 0 0 0 0 0 0 0 0 0 0 0 0 0 0 0 0 0 0 0 0 0 0 0 0 0 0 0 0 0 0 0 0 0 0 0 0 0 0 0 0 0 0 0 0 0 0 0 0 0 0 0 0 0 0 0 0 0 0 0 0 0 0 0 0 0 0 0 0 0 0 0 0 0 0 0 0 0 0 0 0 0 0 0 0 0 0 0 0 0 0 0 0 0 0 0 0 0 0 0 0 0 0 0 0 0 0 0 0 0 0 0 0 0 0 0 0 0 0 0 0 0 0 0 0 0 0 0 0 0 0 0 0 0 0 0 0 0 0 0 0 0 0 0 0 0 0 0 0 0 0 0 0 0 0 0 0 0 0 0 0 0 0 0 0 0 0 0 0 0 0 0 0 0 0 0 0 0 0 0 0 0 0 0 0 0 0 0 0 0 0 0 0 0 0 0 0 0 0 0 0 0 0 0 0 0 0 0 0 0 0 0 0 0 0 0 0 0 0 0 0 0 0 0 0 0 0 0 0 0 0 0 0 0 0 0 0 0 0 0 0 0 0 0 0 0 0 0 0 0 0 0 0 0 0 0 0 0 0 0 0 0 0 0 0 0 0 0 0 0 0 0 0 0 0 0 0 0 -0.038137 -0.037779 -0.0395628 -0.040846 -0.044162 -0.0455384 -0.0469856 -0.0490856 -0.0511886 -0.0529783 -0.0542957 -0.0552624 -0.0559307 -0.0562932 -0.0563515 -0.0561538 -0.0557177 -0.0550971 -0.0543421 -0.0534996 -0.0526022 -0.0516737 -0.0507417 -0.0498728 -0.0491801 -0.0486885 -0.048147 -0.0474271 -0.0466626 -0.0458904 -0.0451439 -0.0444454 -0.0437975 -0.0432236 -0.0427197 -0.0422958 -0.0419414 -0.0416428 -0.041368 -0.0410741 -0.040775 -0.0405473 -0.0405786 -0.0407351 -0.0409175 -0.041064 -0.041142 -0.0412099 -0.0412706 -0.0413451 -0.0414043 -0.0414561 -0.0414904 -0.0415165 -0.0415187 -0.0414952 -0.0414407 -0.0413593 -0.0412546 -0.0411297 -0.0409888 -0.0408369 -0.0406796 -0.0405225 -0.0403703 -0.0402271 -0.0400959 -0.0399795 -0.0398807 -0.0398004 -0.0397381 -0.0396929 -0.0396637 -0.0396485 -0.0396445 -0.0396483 -0.0396557 -0.0396623 -0.0396634 -0.0396554 -0.0396346 -0.0396018 -0.0395548 -0.0394895 -0.0394017 -0.0392871 -0.0391407 -0.0389546 -0.0387142 -0.0383906 -0.0379366 -0.037296 -0.0364195 -0.0352451 -0.0336588 -0.0314471 -0.0284081 -0.0243424 -0.0188747 -0.0112034 2.1684e-19 
0.02 0.0200002 0.0200006 0.0200011 0.0200017 0.0200026 0.0200037 0.020005 0.0200067 0.0200086 0.0200109 0.0200135 0.0200163 0.0200195 0.0200228 0.0200263 0.0200298 0.0200334 0.0200368 0.02004 0.020043 0.0200457 0.020048 0.0200501 0.0200519 0.0200537 0.0200555 0.0200576 0.0200602 0.0200636 0.0200681 0.020074 0.0200815 0.020091 0.0201027 0.0201166 0.020133 0.0201517 0.0201726 0.0201955 0.02022 0.0202456 0.0202715 0.020297 0.0203211 0.0203427 0.0203605 0.0203732 0.0203792 0.0203767 0.0203639 0.0203385 0.0202983 0.0202411 0.020165 0.0200689 0.0199531 0.0198189 0.0196686 0.0195042 0.0193267 0.0191359 0.0189316 0.0187152 0.0184899 0.0182602 0.0180286 0.0177905 0.0175259 0.0171961 0.0167397 0.0160739 0.0151072 0.013743 0.0118839 0.00943711 0.00628035 0.00230795 -0.00277491 -0.00904958 -0.01686 -0.027165 -0.0400701 -0.0469481 0 0 0 0 0 0 0 0 0 0 0 0 0 0 0 0 0 0 0 0 0 0 0 0 0 0 0 0 0 0 0 0 0 0 0 0 0 0 0 0 0 0 0 0 0 0 0 0 0 0 0 0 0 0 0 0 0 0 0 0 0 0 0 0 0 0 0 0 0 0 0 0 0 0 0 0 0 0 0 0 0 0 0 0 0 0 0 0 0 0 0 0 0 0 0 0 0 0 0 0 0 0 0 0 0 0 0 0 0 0 0 0 0 0 0 0 0 0 0 0 0 0 0 0 0 0 0 0 0 0 0 0 0 0 0 0 0 0 0 0 0 0 0 0 0 0 0 0 0 0 0 0 0 0 0 0 0 0 0 0 0 0 0 0 0 0 0 0 0 0 0 0 0 0 0 0 0 0 0 0 0 0 0 0 0 0 0 0 0 0 0 0 0 0 0 0 0 0 0 0 0 0 0 0 0 0 0 0 0 0 0 0 0 0 0 0 0 0 0 0 0 0 0 0 0 0 0 0 0 0 0 0 0 0 0 0 0 0 0 0 0 0 0 0 0 0 0 0 0 0 0 0 0 0 0 0 0 0 0 0 0 0 0 0 0 0 0 0 0 0 0 0 0 0 0 0 0 0 0 0 0 0 0 0 0 0 0 0 0 0 0 0 0 0 0 0 0 0 0 0 0 0 0 0 0 0 0 0 0 0 0 0 0 0 0 0 0 0 0 0 0 0 0 0 0 0 0 0 0 0 0 0 0 0 0 0 0 0 0 0 0 0 0 0 0 0 0 0 0 0 0 0 0 0 0 0 0 0 0 0 0 0 0 0 0 0 0 0 0 0 0 0 0 0 0 0 0 0 0 0 0 0 0 0 0 0 0 0 0 0 0 0 0 0 0 0 0 0 0 0 0 0 0 0 0 0 0 0 0 0 0 0 0 0 0 0 0 0 0 0 0 0 0 0 0 0 0 0 0 0 0 0 0 0 0 -0.0357606 -0.0394971 -0.0409346 -0.0422301 -0.0429536 -0.0438399 -0.0451583 -0.0466979 -0.0485237 -0.0502343 -0.0517175 -0.0529649 -0.0539608 -0.0547108 -0.0551762 -0.0553453 -0.0552724 -0.0549752 -0.0544998 -0.0538826 -0.053163 -0.0523725 -0.0515363 -0.0506804 -0.0498407 -0.0490775 -0.0484409 -0.047886 -0.0473221 -0.0467126 -0.0460577 -0.0453841 -0.0447249 -0.0440989 -0.0435282 -0.0430203 -0.0425829 -0.0422104 -0.0418871 -0.0415898 -0.0412971 -0.0410271 -0.0408305 -0.0407901 -0.0408497 -0.0409555 -0.0410521 -0.0411336 -0.0412118 -0.0412877 -0.0413588 -0.0414135 -0.04146 -0.04149 -0.0415076 -0.0415014 -0.0414699 -0.0414114 -0.0413288 -0.0412251 -0.0411034 -0.0409677 -0.0408226 -0.0406733 -0.0405248 -0.0403817 -0.0402481 -0.0401268 -0.0400201 -0.039929 -0.0398539 -0.0397949 -0.0397514 -0.0397219 -0.0397041 -0.0396956 -0.0396933 -0.0396938 -0.0396932 -0.0396881 -0.039675 -0.0396517 -0.0396156 -0.0395635 -0.0394923 -0.0393982 -0.0392775 -0.0391246 -0.0389307 -0.0386791 -0.0383411 -0.0378757 -0.0372357 -0.0363697 -0.0352039 -0.0336197 -0.0314481 -0.0285039 -0.0245434 -0.01912 -0.0113863 -1.30104e-18 
0.02 0.0200002 0.0200006 0.020001 0.0200017 0.0200025 0.0200035 0.0200048 0.0200064 0.0200082 0.0200104 0.0200129 0.0200156 0.0200186 0.0200217 0.020025 0.0200282 0.0200314 0.0200345 0.0200373 0.0200398 0.0200419 0.0200437 0.020045 0.020046 0.0200468 0.0200476 0.0200484 0.0200495 0.0200513 0.0200538 0.0200574 0.0200624 0.0200689 0.0200772 0.0200874 0.0200995 0.0201135 0.0201294 0.0201469 0.0201657 0.0201852 0.0202048 0.0202238 0.0202413 0.020256 0.0202669 0.0202724 0.0202709 0.0202608 0.02024 0.0202064 0.0201579 0.0200923 0.0200081 0.0199041 0.0197805 0.0196381 0.0194782 0.0193019 0.0191094 0.0189007 0.0186764 0.0184387 0.018191 0.0179369 0.0176777 0.0174084 0.0171132 0.0167583 0.0162887 0.0156257 0.0146686 0.0133107 0.0114328 0.00892111 0.00566194 0.00153683 -0.00354782 -0.00976397 -0.0173788 -0.0269759 -0.0391859 -0.0580989 0 0 0 0 0 0 0 0 0 0 0 0 0 0 0 0 0 0 0 0 0 0 0 0 0 0 0 0 0 0 0 0 0 0 0 0 0 0 0 0 0 0 0 0 0 0 0 0 0 0 0 0 0 0 0 0 0 0 0 0 0 0 0 0 0 0 0 0 0 0 0 0 0 0 0 0 0 0 0 0 0 0 0 0 0 0 0 0 0 0 0 0 0 0 0 0 0 0 0 0 0 0 0 0 0 0 0 0 0 0 0 0 0 0 0 0 0 0 0 0 0 0 0 0 0 0 0 0 0 0 0 0 0 0 0 0 0 0 0 0 0 0 0 0 0 0 0 0 0 0 0 0 0 0 0 0 0 0 0 0 0 0 0 0 0 0 0 0 0 0 0 0 0 0 0 0 0 0 0 0 0 0 0 0 0 0 0 0 0 0 0 0 0 0 0 0 0 0 0 0 0 0 0 0 0 0 0 0 0 0 0 0 0 0 0 0 0 0 0 0 0 0 0 0 0 0 0 0 0 0 0 0 0 0 0 0 0 0 0 0 0 0 0 0 0 0 0 0 0 0 0 0 0 0 0 0 0 0 0 0 0 0 0 0 0 0 0 0 0 0 0 0 0 0 0 0 0 0 0 0 0 0 0 0 0 0 0 0 0 0 0 0 0 0 0 0 0 0 0 0 0 0 0 0 0 0 0 0 0 0 0 0 0 0 0 0 0 0 0 0 0 0 0 0 0 0 0 0 0 0 0 0 0 0 0 0 0 0 0 0 0 0 0 0 0 0 0 0 0 0 0 0 0 0 0 0 0 0 0 0 0 0 0 0 0 0 0 0 0 0 0 0 0 0 0 0 0 0 0 0 0 0 0 0 0 0 0 0 0 0 0 0 0 0 0 0 0 0 0 0 0 0 0 0 0 0 0 0 0 0 0 0 0 0 0 0 0 0 0 0 0 0 0 0 0 0 0 0 0 0 0 0 0 0 -0.0383835 -0.0409878 -0.0423307 -0.0433076 -0.0438341 -0.044343 -0.044604 -0.045452 -0.0465522 -0.0477989 -0.0490927 -0.0503287 -0.0514894 -0.0525181 -0.0533343 -0.0538984 -0.0541994 -0.0542727 -0.0541323 -0.0538132 -0.0533441 -0.0527603 -0.0520906 -0.0513609 -0.0505954 -0.0498185 -0.0490656 -0.0483811 -0.0477894 -0.0472529 -0.0467147 -0.0461493 -0.0455601 -0.0449655 -0.0443853 -0.0438392 -0.043341 -0.042898 -0.0425107 -0.042169 -0.0418561 -0.0415584 -0.0412921 -0.0410898 -0.0409825 -0.0409716 -0.0410115 -0.041075 -0.0411507 -0.0412287 -0.0413013 -0.041365 -0.0414161 -0.0414582 -0.0414856 -0.0414965 -0.0414837 -0.0414459 -0.0413836 -0.0412994 -0.0411963 -0.0410775 -0.0409468 -0.0408087 -0.0406677 -0.0405284 -0.0403949 -0.0402707 -0.0401583 -0.0400597 -0.0399757 -0.0399067 -0.0398523 -0.0398112 -0.039782 -0.0397627 -0.039751 -0.0397442 -0.0397391 -0.0397326 -0.0397215 -0.0397029 -0.039674 -0.0396317 -0.0395731 -0.039495 -0.0393943 -0.0392668 -0.0391066 -0.0389038 -0.0386409 -0.038291 -0.0378176 -0.0371775 -0.0363169 -0.0351586 -0.0335909 -0.031466 -0.0285991 -0.0247121 -0.0193105 -0.0115221 -4.33681e-19 