# vtk DataFile Version 2.0
iteration 945
ASCII

DATASET STRUCTURED_POINTS
DIMENSIONS 621 64 1
ORIGIN 0 0 0
SPACING 0.00161031 0.00161031 0.00161031

POINT_DATA 39744
SCALARS P float 1
LOOKUP_TABLE default
0 0 0 0 0 0 0 0 0 0 0 0 0 0 0 0 0 0 0 0 0 0 0 0 0 0 0 0 0 0 0 0 0 0 0 0 0 0 0 0 0 0 0 0 0 0 0 0 0 0 0 0 0 0 0 0 0 0 0 0 0 0 0 0 0 0 0 0 0 0 0 0 0 0 0 0 0 0 0 0 0 0 0 0 0 0 0 0 0 0 0 0 0 0 0 0 0 0 0 0 0 0 0 0 0 0 0 0 0 0 0 0 0 0 0 0 0 0 0 0 0 0 0 0 0 0 0 0 0 0 0 0 0 0 0 0 0 0 0 0 0 0 0 0 0 0 0 0 0 0 0 0 0 0 0 0 0 0 0 0 0 0 0 0 0 0 0 0 0 0 0 0 0 0 0 0 0 0 0 0 0 0 0 0 0 0 0 0 0 0 0 0 0 0 0 0 0 0 0 0 0 0 0 0 0 0 0 0 0 0 0 0 0 0 0 0 0 0 0 0 0 0 0 0 0 0 0 0 0 0 0 0 0 0 0 0 0 0 0 0 0 0 0 0 0 0 0 0 0 0 0 0 0 0 0 0 0 0 0 0 0 0 0 0 0 0 0 0 0 0 0 0 0 0 0 0 0 0 0 0 0 0 0 0 0 0 0 0 0 0 0 0 0 0 0 0 0 0 0 0 0 0 0 0 0 0 0 0 0 0 0 0 0 0 0 0 0 0 0 0 0 0 0 0 0 0 0 0 0 0 0 0 0 0 0 0 0 0 0 0 0 0 0 0 0 0 0 0 0 0 0 0 0 0 0 0 0 0 0 0 0 0 0 0 0 0 0 0 0 0 0 0 0 0 0 0 0 0 0 0 0 0 0 0 0 0 0 0 0 0 0 0 0 0 0 0 0 0 0 0 0 0 0 0 0 0 0 0 0 0 0 0 0 0 0 0 0 0 0 0 0 0 0 0 0 0 0 0 0 0 0 0 0 0 0 0 0 0 0 0 0 0 0 0 0 0 0 0 0 0 0 0 0 0 0 0 0 0 0 0 0 0 0 0 0 0 0 0 0 0 0 0 0 0 0 0 0 0 0 0 0 0 0 0 0 0 0 0 0 0 0 0 0 0 0 0 0 0 0 0 0 0 0 0 0 0 0 0 0 0 0 0 0 0 0 0 0 0 0 0 0 0 0 0 0 0 0 0 0 0 0 0 0 0 0 0 0 0 0 0 0 0 0 0 0 0 0 0 0 0 0 0 0 0 0 0 0 0 0 0 0 0 0 0 0 0 0 0 0 0 0 0 0 0 0 0 0 0 0 0 0 0 0 0 0 0 0 0 0 0 0 0 0 0 0 0 0 0 0 0 0 0 0 0 0 0 0 0 0 0 0 0 0 0 0 0 0 0 0 0 0 
0.02 0.02 0.02 0.02 0.02 0.02 0.02 0.02 0.02 0.02 0.02 0.02 0.02 0.02 0.02 0.02 0.02 0.02 0.02 0.02 0.02 0.02 0.02 0.02 0.02 0.02 0.02 0.02 0.02 0.02 0.02 0.02 0.0199999 0.0199999 0.0199999 0.0199999 0.0199999 0.0199999 0.0199999 0.0199998 0.0199998 0.0199998 0.0199998 0.0199997 0.0199997 0.0199997 0.0199996 0.0199995 0.0199995 0.0199994 0.0199993 0.0199992 0.0199991 0.019999 0.0199989 0.0199988 0.0199986 0.0199985 0.0199983 0.0199981 0.0199978 0.0199976 0.0199973 0.019997 0.0199967 0.0199963 0.019996 0.0199955 0.0199951 0.0199945 0.019994 0.0199934 0.0199927 0.019992 0.0199913 0.0199904 0.0199896 0.0199886 0.0199876 0.0199865 0.0199853 0.0199841 0.0199827 0.0199813 0.0199798 0.0199782 0.0199766 0.0199748 0.019973 0.0199711 0.0199691 0.0199671 0.019965 0.0199629 0.0199608 0.0199587 0.0199565 0.0199544 0.0199524 0.0199504 0.0199486 0.019947 0.0199455 0.0199443 0.0199435 0.019943 0.0199429 0.0199434 0.0199444 0.0199461 0.0199487 0.019952 0.0199564 0.0199619 0.0199686 0.0199766 0.0199862 0.0199973 0.0200102 0.0200251 0.0200419 0.0200609 0.0200822 0.0201059 0.0201321 0.0201609 0.0201924 0.0202267 0.0202637 0.0203035 0.0203461 0.0203913 0.0204393 0.0204899 0.0205429 0.0205982 0.0206557 0.0207151 0.0207763 0.020839 0.020903 0.0209673 0.0210284 0.0210887 0.0211506 0.0212139 0.0212777 0.0213414 0.0214049 0.021468 0.0215303 0.0215919 0.0216526 0.0217122 0.0217708 0.0218282 0.0218842 0.021939 0.0219921 0.0220436 0.0220932 0.0221407 0.0221858 0.0222283 0.0222677 0.0223037 0.0223359 0.0223639 0.0223871 0.0224051 0.0224173 0.0224233 0.0224223 0.0224138 0.022397 0.022371 0.0223346 0.0222868 0.022226 0.0221509 0.0220599 0.0219516 0.0218243 0.0216768 0.0215079 0.0213164 0.0211014 0.0208621 0.0205979 0.0203081 0.0199923 0.01965 0.0192809 0.0188844 0.0184602 0.0180076 0.0175264 0.0170167 0.0164768 0.015909 0.0153202 0.0147713 0.0141846 0.0142021 0.0158621 0 0 0 0 0 0 0 0 0 0 0 0 0 0 0 0 0 0 0 0 0 0 0 0 0 0 0 0 0 0 0 0 0 0 0 0 0 0 0 0 0 0 0 0 0 0 0 0 0 0 0 0 0 0 0 0 0 0 0 0 0 0 0 0 0 0 0 0 0 0 0 0 0 0 0 0 0 0 0 0 0 0 0 0 0 0 0 0 0 0 0 0 0 0 0 0 0 0 0 0 0 0 0 0 0 0 0 0 0 0 0 0 0 0 0 0 0 0 0 0 0 0 0 0 0 0 0 0 0 0 0 0 0 0 0 0 0 0 0 0 0 0 0 0 0 0 0 0 0 0 0 0 0 0 0 0 0 0 0 0 0 0 0 0 0 0 0 0 0 0 0 0 0 0 0 0 0 0 0 0 0 0 0 0 0 0 0 0 0 0 0 0 0 0 0 0 0 0 0 0 0 0 0 0 0 0 0 0 0 0 0 0 0 0 0 0 0 0 0 0 0 0 0 0 0 0 0 0 0 0 0 0 0 0 0 0 0 0 0 0 0 0 0 0 0 0 0 0 0 0 0 0 0 0 0 0 0 0 0 0 0 0 0 0 0 0 0 0 0 0 0 0 0 0 0 0 0 0 0 0 0 0 0 0 0 0 0 0 0 0 0 0 0 0 0 0 0 0 0 0 0 0 0 0 0 0 0 0 0 0 0 0 0 0 0 0 0 0 0 0 0 0 0 0 0 0 0 0 0 0 0 0 0 0 0 0 0 0 0 0 0 0 0 0 0 0 0 0 0 0 0 0 0 0 0 0 0 0 0 0 0 0 0 0 0 0 0 0 0 0 0 0 0 0 0 0 0 0 0 0 0 0 0 0 0 0 0 0 0 0 0 0 0 0 0 0 0 0 0 0 0 0 0 0 0 0 0 0 0 0 0 0 0 0 0 0 
0.02 0.02 0.02 0.02 0.02 0.02 0.02 0.02 0.02 0.02 0.02 0.02 0.02 0.02 0.02 0.02 0.02 0.02 0.02 0.02 0.02 0.02 0.02 0.02 0.02 0.02 0.02 0.02 0.02 0.02 0.02 0.02 0.0199999 0.0199999 0.0199999 0.0199999 0.0199999 0.0199999 0.0199999 0.0199999 0.0199998 0.0199998 0.0199998 0.0199997 0.0199997 0.0199997 0.0199996 0.0199996 0.0199995 0.0199994 0.0199993 0.0199993 0.0199992 0.0199991 0.0199989 0.0199988 0.0199987 0.0199985 0.0199983 0.0199981 0.0199979 0.0199977 0.0199974 0.0199971 0.0199968 0.0199964 0.0199961 0.0199956 0.0199952 0.0199947 0.0199941 0.0199936 0.0199929 0.0199922 0.0199915 0.0199907 0.0199898 0.0199889 0.0199879 0.0199868 0.0199857 0.0199845 0.0199832 0.0199818 0.0199803 0.0199788 0.0199772 0.0199754 0.0199737 0.0199718 0.0199699 0.0199679 0.0199659 0.0199638 0.0199618 0.0199597 0.0199576 0.0199555 0.0199535 0.0199516 0.0199498 0.0199482 0.0199468 0.0199457 0.0199448 0.0199443 0.0199443 0.0199448 0.0199458 0.0199475 0.01995 0.0199534 0.0199577 0.0199631 0.0199698 0.0199777 0.0199872 0.0199982 0.020011 0.0200256 0.0200423 0.0200611 0.0200822 0.0201056 0.0201316 0.0201601 0.0201913 0.0202252 0.0202618 0.0203012 0.0203434 0.0203882 0.0204357 0.0204857 0.0205382 0.0205929 0.0206498 0.0207086 0.0207692 0.0208312 0.0208945 0.0209584 0.0210211 0.0210826 0.0211447 0.0212075 0.0212708 0.021334 0.0213969 0.0214595 0.0215213 0.0215825 0.0216427 0.0217019 0.0217601 0.021817 0.0218727 0.021927 0.0219798 0.0220309 0.0220801 0.0221272 0.022172 0.0222141 0.0222532 0.022289 0.0223209 0.0223487 0.0223717 0.0223896 0.0224018 0.0224078 0.0224069 0.0223986 0.022382 0.0223562 0.0223203 0.022273 0.0222128 0.0221385 0.0220484 0.0219411 0.021815 0.0216689 0.0215014 0.0213114 0.021098 0.0208603 0.0205976 0.0203094 0.019995 0.0196541 0.0192862 0.0188909 0.0184677 0.0180162 0.0175362 0.0170282 0.0164922 0.0159304 0.0153596 0.0148551 0.0141967 0.0138748 0.01402 0.0131941 0.0122021 0.0112827 0.0103454 0.00929387 0.00808023 0.00688426 0.0058571 0.00578071 0 0 0 0 0 0 0 0 0 0 0 0 0 0 0 0 0 0 0 0 0 0 0 0 0 0 0 0 0 0 0 0 0 0 0 0 0 0 0 0 0 0 0 0 0 0 0 0 0 0 0 0 0 0 0 0 0 0 0 0 0 0 0 0 0 0 0 0 0 0 0 0 0 0 0 0 0 0 0 0 0 0 0 0 0 0 0 0 0 0 0 0 0 0 0 0 0 0 0 0 0 0 0 0 0 0 0 0 0 0 0 0 0 0 0 0 0 0 0 0 0 0 0 0 0 0 0 0 0 0 0 0 0 0 0 0 0 0 0 0 0 0 0 0 0 0 0 0 0 0 0 0 0 0 0 0 0 0 0 0 0 0 0 0 0 0 0 0 0 0 0 0 0 0 0 0 0 0 0 0 0 0 0 0 0 0 0 0 0 0 0 0 0 0 0 0 0 0 0 0 0 0 0 0 0 0 0 0 0 0 0 0 0 0 0 0 0 0 0 0 0 0 0 0 0 0 0 0 0 0 0 0 0 0 0 0 0 0 0 0 0 0 0 0 0 0 0 0 0 0 0 0 0 0 0 0 0 0 0 0 0 0 0 0 0 0 0 0 0 0 0 0 0 0 0 0 0 0 0 0 0 0 0 0 0 0 0 0 0 0 0 0 0 0 0 0 0 0 0 0 0 0 0 0 0 0 0 0 0 0 0 0 0 0 0 0 0 0 0 0 0 0 0 0 0 0 0 0 0 0 0 0 0 0 0 0 0 0 0 0 0 0 0 0 0 0 0 0 0 0 0 0 0 0 0 0 0 0 0 0 0 0 0 0 0 0 0 0 0 0 0 0 0 0 0 0 0 0 0 0 0 0 0 0 0 0 0 0 0 0 0 0 0 0 0 0 0 0 0 0 0 0 0 0 0 0 0 
0.02 0.02 0.02 0.02 0.02 0.02 0.02 0.02 0.02 0.02 0.02 0.02 0.02 0.02 0.02 0.02 0.02 0.02 0.02 0.02 0.02 0.02 0.02 0.02 0.02 0.02 0.02 0.02 0.02 0.02 0.02 0.02 0.0199999 0.0199999 0.0199999 0.0199999 0.0199999 0.0199999 0.0199999 0.0199999 0.0199998 0.0199998 0.0199998 0.0199997 0.0199997 0.0199997 0.0199996 0.0199996 0.0199995 0.0199994 0.0199994 0.0199993 0.0199992 0.0199991 0.019999 0.0199988 0.0199987 0.0199985 0.0199984 0.0199982 0.0199979 0.0199977 0.0199975 0.0199972 0.0199969 0.0199965 0.0199961 0.0199957 0.0199953 0.0199948 0.0199943 0.0199937 0.0199931 0.0199924 0.0199917 0.0199909 0.0199901 0.0199892 0.0199882 0.0199872 0.019986 0.0199849 0.0199836 0.0199823 0.0199808 0.0199793 0.0199777 0.0199761 0.0199744 0.0199726 0.0199707 0.0199688 0.0199668 0.0199648 0.0199628 0.0199607 0.0199587 0.0199567 0.0199548 0.0199529 0.0199512 0.0199497 0.0199483 0.0199472 0.0199464 0.019946 0.019946 0.0199465 0.0199476 0.0199493 0.0199518 0.0199552 0.0199595 0.0199649 0.0199715 0.0199795 0.0199889 0.0199998 0.0200125 0.0200271 0.0200436 0.0200623 0.0200832 0.0201065 0.0201323 0.0201606 0.0201915 0.0202251 0.0202615 0.0203006 0.0203424 0.0203868 0.0204339 0.0204835 0.0205355 0.0205898 0.0206461 0.0207044 0.0207644 0.0208258 0.0208884 0.0209518 0.0210151 0.0210775 0.0211397 0.0212021 0.0212645 0.0213269 0.0213891 0.0214508 0.0215118 0.021572 0.0216314 0.0216897 0.021747 0.021803 0.0218577 0.0219111 0.0219628 0.0220129 0.0220611 0.0221072 0.0221509 0.022192 0.0222301 0.0222648 0.0222958 0.0223226 0.0223448 0.0223618 0.0223732 0.0223785 0.022377 0.0223682 0.0223512 0.0223252 0.0222891 0.0222418 0.0221819 0.0221079 0.0220183 0.0219118 0.0217867 0.0216417 0.0214755 0.0212871 0.0210754 0.0208396 0.0205789 0.0202927 0.0199805 0.0196419 0.0192763 0.0188833 0.0184626 0.0180136 0.0175365 0.0170333 0.0165072 0.0159631 0.0154294 0.0149559 0.0145144 0.0139107 0.0136716 0.0129574 0.0121146 0.0112299 0.0102645 0.00922538 0.00810062 0.00696262 0.00589606 0.00497132 0.00370321 0.00217194 0.000603968 -0.00103084 -0.00284638 -0.00454789 0 0 0 0 0 0 0 0 0 0 0 0 0 0 0 0 0 0 0 0 0 0 0 0 0 0 0 0 0 0 0 0 0 0 0 0 0 0 0 0 0 0 0 0 0 0 0 0 0 0 0 0 0 0 0 0 0 0 0 0 0 0 0 0 0 0 0 0 0 0 0 0 0 0 0 0 0 0 0 0 0 0 0 0 0 0 0 0 0 0 0 0 0 0 0 0 0 0 0 0 0 0 0 0 0 0 0 0 0 0 0 0 0 0 0 0 0 0 0 0 0 0 0 0 0 0 0 0 0 0 0 0 0 0 0 0 0 0 0 0 0 0 0 0 0 0 0 0 0 0 0 0 0 0 0 0 0 0 0 0 0 0 0 0 0 0 0 0 0 0 0 0 0 0 0 0 0 0 0 0 0 0 0 0 0 0 0 0 0 0 0 0 0 0 0 0 0 0 0 0 0 0 0 0 0 0 0 0 0 0 0 0 0 0 0 0 0 0 0 0 0 0 0 0 0 0 0 0 0 0 0 0 0 0 0 0 0 0 0 0 0 0 0 0 0 0 0 0 0 0 0 0 0 0 0 0 0 0 0 0 0 0 0 0 0 0 0 0 0 0 0 0 0 0 0 0 0 0 0 0 0 0 0 0 0 0 0 0 0 0 0 0 0 0 0 0 0 0 0 0 0 0 0 0 0 0 0 0 0 0 0 0 0 0 0 0 0 0 0 0 0 0 0 0 0 0 0 0 0 0 0 0 0 0 0 0 0 0 0 0 0 0 0 0 0 0 0 0 0 0 0 0 0 0 0 0 0 0 0 0 0 0 0 0 0 0 0 0 0 0 0 0 0 0 0 0 0 0 0 0 0 0 0 0 0 0 0 0 0 0 0 0 0 0 0 0 0 0 0 0 0 
0.02 0.02 0.02 0.02 0.02 0.02 0.02 0.02 0.02 0.02 0.02 0.02 0.02 0.02 0.02 0.02 0.02 0.02 0.02 0.02 0.02 0.02 0.02 0.02 0.02 0.02 0.02 0.02 0.02 0.02 0.02 0.02 0.02 0.0199999 0.0199999 0.0199999 0.0199999 0.0199999 0.0199999 0.0199999 0.0199998 0.0199998 0.0199998 0.0199998 0.0199997 0.0199997 0.0199996 0.0199996 0.0199995 0.0199995 0.0199994 0.0199993 0.0199992 0.0199991 0.019999 0.0199989 0.0199987 0.0199986 0.0199984 0.0199982 0.019998 0.0199978 0.0199975 0.0199973 0.019997 0.0199966 0.0199963 0.0199959 0.0199955 0.019995 0.0199945 0.0199939 0.0199933 0.0199927 0.019992 0.0199912 0.0199904 0.0199895 0.0199886 0.0199876 0.0199865 0.0199854 0.0199842 0.0199829 0.0199815 0.0199801 0.0199785 0.0199769 0.0199753 0.0199735 0.0199717 0.0199699 0.019968 0.0199661 0.0199641 0.0199622 0.0199602 0.0199583 0.0199565 0.0199547 0.0199531 0.0199516 0.0199504 0.0199493 0.0199486 0.0199483 0.0199484 0.0199489 0.0199501 0.0199519 0.0199544 0.0199578 0.0199622 0.0199676 0.0199742 0.0199821 0.0199915 0.0200024 0.020015 0.0200295 0.0200459 0.0200644 0.0200852 0.0201083 0.0201338 0.0201619 0.0201925 0.0202258 0.0202618 0.0203005 0.0203419 0.0203859 0.0204325 0.0204816 0.020533 0.0205867 0.0206424 0.0207 0.0207592 0.0208198 0.0208817 0.0209444 0.0210074 0.02107 0.0211323 0.0211942 0.0212559 0.0213174 0.0213785 0.021439 0.0214988 0.0215578 0.0216159 0.0216729 0.0217288 0.0217834 0.0218367 0.0218885 0.0219388 0.0219873 0.0220339 0.0220784 0.0221205 0.0221599 0.0221964 0.0222295 0.0222589 0.0222842 0.0223049 0.0223205 0.0223306 0.0223347 0.0223322 0.0223224 0.0223046 0.022278 0.0222416 0.0221941 0.0221343 0.0220606 0.0219718 0.0218661 0.0217422 0.0215988 0.0214345 0.0212482 0.0210389 0.0208057 0.0205478 0.0202648 0.0199559 0.0196206 0.0192586 0.0188692 0.0184524 0.0180081 0.0175372 0.0170434 0.0165338 0.0160183 0.0155144 0.0150603 0.0146553 0.0142052 0.0135985 0.0128727 0.0120649 0.0112036 0.0102309 0.00920969 0.00813742 0.00705696 0.00595975 0.00485555 0.0035803 0.0021132 0.00059675 -0.000925728 -0.0026482 -0.00446954 -0.00637644 -0.00833172 -0.0104392 -0.0133567 -0.0149315 0 0 0 0 0 0 0 0 0 0 0 0 0 0 0 0 0 0 0 0 0 0 0 0 0 0 0 0 0 0 0 0 0 0 0 0 0 0 0 0 0 0 0 0 0 0 0 0 0 0 0 0 0 0 0 0 0 0 0 0 0 0 0 0 0 0 0 0 0 0 0 0 0 0 0 0 0 0 0 0 0 0 0 0 0 0 0 0 0 0 0 0 0 0 0 0 0 0 0 0 0 0 0 0 0 0 0 0 0 0 0 0 0 0 0 0 0 0 0 0 0 0 0 0 0 0 0 0 0 0 0 0 0 0 0 0 0 0 0 0 0 0 0 0 0 0 0 0 0 0 0 0 0 0 0 0 0 0 0 0 0 0 0 0 0 0 0 0 0 0 0 0 0 0 0 0 0 0 0 0 0 0 0 0 0 0 0 0 0 0 0 0 0 0 0 0 0 0 0 0 0 0 0 0 0 0 0 0 0 0 0 0 0 0 0 0 0 0 0 0 0 0 0 0 0 0 0 0 0 0 0 0 0 0 0 0 0 0 0 0 0 0 0 0 0 0 0 0 0 0 0 0 0 0 0 0 0 0 0 0 0 0 0 0 0 0 0 0 0 0 0 0 0 0 0 0 0 0 0 0 0 0 0 0 0 0 0 0 0 0 0 0 0 0 0 0 0 0 0 0 0 0 0 0 0 0 0 0 0 0 0 0 0 0 0 0 0 0 0 0 0 0 0 0 0 0 0 0 0 0 0 0 0 0 0 0 0 0 0 0 0 0 0 0 0 0 0 0 0 0 0 0 0 0 0 0 0 0 0 0 0 0 0 0 0 0 0 0 0 0 0 0 0 0 0 0 0 0 0 0 0 0 0 0 0 0 0 0 0 0 0 0 0 0 -0.00411675 0 
0.02 0.02 0.02 0.02 0.02 0.02 0.02 0.02 0.02 0.02 0.02 0.02 0.02 0.02 0.02 0.02 0.02 0.02 0.02 0.02 0.02 0.02 0.02 0.02 0.02 0.02 0.02 0.02 0.02 0.02 0.02 0.02 0.02 0.0199999 0.0199999 0.0199999 0.0199999 0.0199999 0.0199999 0.0199999 0.0199998 0.0199998 0.0199998 0.0199998 0.0199997 0.0199997 0.0199996 0.0199996 0.0199995 0.0199995 0.0199994 0.0199993 0.0199992 0.0199991 0.019999 0.0199989 0.0199988 0.0199986 0.0199985 0.0199983 0.0199981 0.0199979 0.0199976 0.0199974 0.0199971 0.0199968 0.0199964 0.0199961 0.0199956 0.0199952 0.0199947 0.0199942 0.0199936 0.019993 0.0199923 0.0199916 0.0199909 0.01999 0.0199891 0.0199882 0.0199872 0.0199861 0.0199849 0.0199837 0.0199824 0.019981 0.0199795 0.019978 0.0199765 0.0199748 0.0199731 0.0199714 0.0199696 0.0199677 0.0199659 0.019964 0.0199622 0.0199604 0.0199587 0.0199571 0.0199556 0.0199542 0.0199531 0.0199522 0.0199516 0.0199513 0.0199515 0.0199522 0.0199534 0.0199553 0.0199579 0.0199614 0.0199658 0.0199712 0.0199778 0.0199857 0.019995 0.0200059 0.0200184 0.0200328 0.0200491 0.0200674 0.020088 0.0201108 0.0201361 0.0201638 0.0201941 0.020227 0.0202626 0.0203008 0.0203417 0.0203851 0.0204311 0.0204795 0.0205302 0.0205831 0.020638 0.0206946 0.0207529 0.0208126 0.0208734 0.0209351 0.0209972 0.0210594 0.0211212 0.0211826 0.0212436 0.021304 0.0213638 0.021423 0.0214813 0.0215387 0.0215952 0.0216505 0.0217045 0.0217573 0.0218087 0.0218585 0.0219068 0.0219532 0.0219977 0.02204 0.02208 0.0221173 0.0221516 0.0221825 0.0222099 0.0222331 0.0222518 0.0222656 0.022274 0.0222764 0.0222724 0.0222614 0.0222426 0.0222152 0.0221783 0.0221306 0.0220708 0.0219977 0.0219096 0.0218052 0.021683 0.0215417 0.0213798 0.0211964 0.0209903 0.0207607 0.0205068 0.0202278 0.0199234 0.0195928 0.0192357 0.0188516 0.0184407 0.0180039 0.0175432 0.0170638 0.0165759 0.0160886 0.0156115 0.015154 0.0146973 0.0141957 0.0135819 0.0128676 0.0120654 0.0111936 0.0102357 0.00923599 0.00819581 0.0071296 0.00598915 0.00481499 0.0035044 0.00207224 0.0005613 -0.000998698 -0.00261764 -0.00447753 -0.00630479 -0.00825933 -0.0103081 -0.0126889 -0.015067 -0.0174534 -0.0198201 -0.0227265 -0.0274995 0 0 0 0 0 0 0 0 0 0 0 0 0 0 0 0 0 0 0 0 0 0 0 0 0 0 0 0 0 0 0 0 0 0 0 0 0 0 0 0 0 0 0 0 0 0 0 0 0 0 0 0 0 0 0 0 0 0 0 0 0 0 0 0 0 0 0 0 0 0 0 0 0 0 0 0 0 0 0 0 0 0 0 0 0 0 0 0 0 0 0 0 0 0 0 0 0 0 0 0 0 0 0 0 0 0 0 0 0 0 0 0 0 0 0 0 0 0 0 0 0 0 0 0 0 0 0 0 0 0 0 0 0 0 0 0 0 0 0 0 0 0 0 0 0 0 0 0 0 0 0 0 0 0 0 0 0 0 0 0 0 0 0 0 0 0 0 0 0 0 0 0 0 0 0 0 0 0 0 0 0 0 0 0 0 0 0 0 0 0 0 0 0 0 0 0 0 0 0 0 0 0 0 0 0 0 0 0 0 0 0 0 0 0 0 0 0 0 0 0 0 0 0 0 0 0 0 0 0 0 0 0 0 0 0 0 0 0 0 0 0 0 0 0 0 0 0 0 0 0 0 0 0 0 0 0 0 0 0 0 0 0 0 0 0 0 0 0 0 0 0 0 0 0 0 0 0 0 0 0 0 0 0 0 0 0 0 0 0 0 0 0 0 0 0 0 0 0 0 0 0 0 0 0 0 0 0 0 0 0 0 0 0 0 0 0 0 0 0 0 0 0 0 0 0 0 0 0 0 0 0 0 0 0 0 0 0 0 0 0 0 0 0 0 0 0 0 0 0 0 0 0 0 0 0 0 0 0 0 0 0 0 0 0 0 0 0 0 0 0 0 0 0 0 0 0 0 0 0 0 0 0 0 0 0 0 0 0 0 -0.0130244 -0.00678658 2.1684e-19 
0.02 0.02 0.02 0.02 0.02 0.02 0.02 0.02 0.02 0.02 0.02 0.02 0.02 0.02 0.02 0.02 0.02 0.02 0.02 0.02 0.02 0.02 0.02 0.02 0.02 0.02 0.02 0.02 0.02 0.02 0.02 0.02 0.02 0.0199999 0.0199999 0.0199999 0.0199999 0.0199999 0.0199999 0.0199999 0.0199998 0.0199998 0.0199998 0.0199998 0.0199997 0.0199997 0.0199997 0.0199996 0.0199996 0.0199995 0.0199994 0.0199994 0.0199993 0.0199992 0.0199991 0.019999 0.0199988 0.0199987 0.0199985 0.0199984 0.0199982 0.019998 0.0199978 0.0199975 0.0199972 0.0199969 0.0199966 0.0199963 0.0199959 0.0199955 0.019995 0.0199945 0.019994 0.0199934 0.0199928 0.0199921 0.0199914 0.0199906 0.0199898 0.0199889 0.0199879 0.0199869 0.0199858 0.0199847 0.0199834 0.0199821 0.0199808 0.0199794 0.0199779 0.0199764 0.0199748 0.0199731 0.0199715 0.0199698 0.0199681 0.0199664 0.0199647 0.019963 0.0199614 0.01996 0.0199586 0.0199574 0.0199564 0.0199556 0.0199552 0.0199551 0.0199554 0.0199562 0.0199575 0.0199595 0.0199622 0.0199657 0.0199702 0.0199757 0.0199823 0.0199902 0.0199995 0.0200103 0.0200227 0.020037 0.0200531 0.0200712 0.0200915 0.0201141 0.020139 0.0201664 0.0201963 0.0202287 0.0202637 0.0203013 0.0203415 0.0203842 0.0204294 0.020477 0.0205268 0.0205788 0.0206326 0.0206882 0.0207454 0.0208038 0.0208634 0.0209237 0.0209846 0.0210456 0.0211065 0.021167 0.0212268 0.021286 0.0213444 0.021402 0.0214586 0.0215141 0.0215686 0.0216218 0.0216737 0.0217242 0.0217732 0.0218206 0.0218663 0.0219102 0.0219521 0.0219918 0.0220291 0.0220638 0.0220954 0.0221238 0.0221486 0.0221694 0.0221857 0.0221973 0.0222035 0.0222041 0.0221983 0.0221858 0.0221658 0.0221375 0.0220999 0.022052 0.0219924 0.0219199 0.021833 0.0217302 0.0216101 0.0214714 0.0213127 0.0211329 0.0209309 0.0207058 0.0204568 0.0201832 0.0198843 0.0195597 0.019209 0.018832 0.0184295 0.0180032 0.017557 0.0170966 0.0166312 0.0161699 0.0157116 0.0152451 0.0147643 0.0142166 0.0135893 0.0128745 0.0120763 0.0112078 0.010271 0.00928849 0.00826051 0.00719142 0.00605088 0.00481119 0.00347672 0.00205732 0.000547358 -0.00104445 -0.00273718 -0.00451492 -0.00635691 -0.00829841 -0.0103999 -0.0126291 -0.0148632 -0.0171488 -0.0195294 -0.0212552 -0.02506 -0.0276732 -0.0298161 -0.0329502 -0.0396688 0 0 0 0 0 0 0 0 0 0 0 0 0 0 0 0 0 0 0 0 0 0 0 0 0 0 0 0 0 0 0 0 0 0 0 0 0 0 0 0 0 0 0 0 0 0 0 0 0 0 0 0 0 0 0 0 0 0 0 0 0 0 0 0 0 0 0 0 0 0 0 0 0 0 0 0 0 0 0 0 0 0 0 0 0 0 0 0 0 0 0 0 0 0 0 0 0 0 0 0 0 0 0 0 0 0 0 0 0 0 0 0 0 0 0 0 0 0 0 0 0 0 0 0 0 0 0 0 0 0 0 0 0 0 0 0 0 0 0 0 0 0 0 0 0 0 0 0 0 0 0 0 0 0 0 0 0 0 0 0 0 0 0 0 0 0 0 0 0 0 0 0 0 0 0 0 0 0 0 0 0 0 0 0 0 0 0 0 0 0 0 0 0 0 0 0 0 0 0 0 0 0 0 0 0 0 0 0 0 0 0 0 0 0 0 0 0 0 0 0 0 0 0 0 0 0 0 0 0 0 0 0 0 0 0 0 0 0 0 0 0 0 0 0 0 0 0 0 0 0 0 0 0 0 0 0 0 0 0 0 0 0 0 0 0 0 0 0 0 0 0 0 0 0 0 0 0 0 0 0 0 0 0 0 0 0 0 0 0 0 0 0 0 0 0 0 0 0 0 0 0 0 0 0 0 0 0 0 0 0 0 0 0 0 0 0 0 0 0 0 0 0 0 0 0 0 0 0 0 0 0 0 0 0 0 0 0 0 0 0 0 0 0 0 0 0 0 0 0 0 0 0 0 0 0 0 0 0 0 0 0 0 0 0 0 0 0 0 0 0 0 0 0 0 0 0 0 0 0 0 0 0 0 -0.0281411 -0.0244556 -0.0173643 -0.00945565 -2.1684e-19 
0.02 0.02 0.02 0.02 0.02 0.02 0.02 0.02 0.02 0.02 0.02 0.02 0.02 0.02 0.02 0.02 0.02 0.02 0.02 0.02 0.02 0.02 0.02 0.02 0.02 0.02 0.02 0.02 0.02 0.02 0.02 0.02 0.02 0.0199999 0.0199999 0.0199999 0.0199999 0.0199999 0.0199999 0.0199999 0.0199999 0.0199998 0.0199998 0.0199998 0.0199998 0.0199997 0.0199997 0.0199996 0.0199996 0.0199995 0.0199995 0.0199994 0.0199993 0.0199992 0.0199991 0.019999 0.0199989 0.0199988 0.0199986 0.0199985 0.0199983 0.0199981 0.0199979 0.0199977 0.0199974 0.0199972 0.0199969 0.0199965 0.0199962 0.0199958 0.0199954 0.0199949 0.0199944 0.0199939 0.0199933 0.0199927 0.019992 0.0199913 0.0199905 0.0199897 0.0199888 0.0199879 0.0199869 0.0199858 0.0199847 0.0199835 0.0199823 0.019981 0.0199796 0.0199782 0.0199767 0.0199752 0.0199737 0.0199722 0.0199706 0.0199691 0.0199676 0.0199661 0.0199647 0.0199634 0.0199622 0.0199611 0.0199603 0.0199597 0.0199594 0.0199595 0.01996 0.0199609 0.0199624 0.0199645 0.0199673 0.019971 0.0199755 0.019981 0.0199877 0.0199956 0.0200048 0.0200156 0.0200279 0.020042 0.0200579 0.0200758 0.0200958 0.020118 0.0201426 0.0201695 0.0201988 0.0202307 0.020265 0.020302 0.0203414 0.0203832 0.0204275 0.0204741 0.0205228 0.0205736 0.0206263 0.0206806 0.0207364 0.0207934 0.0208514 0.0209101 0.0209693 0.0210288 0.0210881 0.0211471 0.0212055 0.0212631 0.0213198 0.0213754 0.02143 0.0214834 0.0215355 0.0215863 0.0216356 0.0216835 0.0217297 0.0217743 0.0218171 0.021858 0.0218969 0.0219336 0.0219678 0.0219993 0.022028 0.0220534 0.0220753 0.0220933 0.0221069 0.0221159 0.0221198 0.0221182 0.0221106 0.0220964 0.022075 0.0220457 0.0220075 0.0219593 0.0219001 0.0218284 0.0217429 0.0216421 0.0215247 0.0213892 0.0212343 0.0210589 0.0208619 0.0206423 0.0203992 0.0201319 0.0198399 0.0195226 0.01918 0.0188123 0.018421 0.0180087 0.0175803 0.0171413 0.0166978 0.0162542 0.0158058 0.0153377 0.0148255 0.0142591 0.0136194 0.0129012 0.0121077 0.0112485 0.0103286 0.00935794 0.00833015 0.00724673 0.00608308 0.00483204 0.00349129 0.00206529 0.000552166 -0.00105972 -0.0027535 -0.00454657 -0.00641641 -0.00836597 -0.0104925 -0.0126627 -0.014871 -0.0171412 -0.0195372 -0.0221408 -0.0246488 -0.0271627 -0.0289256 -0.0319237 -0.0358507 -0.0383523 -0.0401555 -0.0419515 -0.0449952 -0.0528551 0 0 0 0 0 0 0 0 0 0 0 0 0 0 0 0 0 0 0 0 0 0 0 0 0 0 0 0 0 0 0 0 0 0 0 0 0 0 0 0 0 0 0 0 0 0 0 0 0 0 0 0 0 0 0 0 0 0 0 0 0 0 0 0 0 0 0 0 0 0 0 0 0 0 0 0 0 0 0 0 0 0 0 0 0 0 0 0 0 0 0 0 0 0 0 0 0 0 0 0 0 0 0 0 0 0 0 0 0 0 0 0 0 0 0 0 0 0 0 0 0 0 0 0 0 0 0 0 0 0 0 0 0 0 0 0 0 0 0 0 0 0 0 0 0 0 0 0 0 0 0 0 0 0 0 0 0 0 0 0 0 0 0 0 0 0 0 0 0 0 0 0 0 0 0 0 0 0 0 0 0 0 0 0 0 0 0 0 0 0 0 0 0 0 0 0 0 0 0 0 0 0 0 0 0 0 0 0 0 0 0 0 0 0 0 0 0 0 0 0 0 0 0 0 0 0 0 0 0 0 0 0 0 0 0 0 0 0 0 0 0 0 0 0 0 0 0 0 0 0 0 0 0 0 0 0 0 0 0 0 0 0 0 0 0 0 0 0 0 0 0 0 0 0 0 0 0 0 0 0 0 0 0 0 0 0 0 0 0 0 0 0 0 0 0 0 0 0 0 0 0 0 0 0 0 0 0 0 0 0 0 0 0 0 0 0 0 0 0 0 0 0 0 0 0 0 0 0 0 0 0 0 0 0 0 0 0 0 0 0 0 0 0 0 0 0 0 0 0 0 0 0 0 0 0 0 0 0 0 0 0 0 0 0 0 0 0 0 0 0 -0.0391865 -0.0422684 -0.0430786 -0.0431532 -0.0427921 -0.041744 -0.0393829 -0.0364014 -0.0319673 -0.0262899 -0.0193005 -0.0109249 -1.0842e-18 
0.02 0.02 0.02 0.02 0.02 0.02 0.02 0.02 0.02 0.02 0.02 0.02 0.02 0.02 0.02 0.02 0.02 0.02 0.02 0.02 0.02 0.02 0.02 0.02 0.02 0.02 0.02 0.02 0.02 0.02 0.02 0.02 0.02 0.02 0.0199999 0.0199999 0.0199999 0.0199999 0.0199999 0.0199999 0.0199999 0.0199998 0.0199998 0.0199998 0.0199998 0.0199997 0.0199997 0.0199997 0.0199996 0.0199996 0.0199995 0.0199994 0.0199994 0.0199993 0.0199992 0.0199991 0.019999 0.0199989 0.0199987 0.0199986 0.0199984 0.0199983 0.0199981 0.0199979 0.0199976 0.0199974 0.0199971 0.0199968 0.0199965 0.0199961 0.0199958 0.0199954 0.0199949 0.0199944 0.0199939 0.0199933 0.0199927 0.0199921 0.0199914 0.0199906 0.0199898 0.019989 0.0199881 0.0199871 0.0199861 0.019985 0.0199839 0.0199828 0.0199815 0.0199803 0.019979 0.0199776 0.0199763 0.0199749 0.0199735 0.0199722 0.0199708 0.0199695 0.0199683 0.0199672 0.0199662 0.0199654 0.0199648 0.0199644 0.0199643 0.0199646 0.0199652 0.0199663 0.019968 0.0199702 0.0199732 0.0199769 0.0199815 0.0199871 0.0199938 0.0200017 0.0200109 0.0200216 0.0200338 0.0200477 0.0200634 0.020081 0.0201007 0.0201225 0.0201466 0.020173 0.0202017 0.0202329 0.0202665 0.0203026 0.0203411 0.020382 0.0204252 0.0204706 0.0205181 0.0205676 0.0206188 0.0206716 0.0207258 0.0207811 0.0208373 0.0208942 0.0209515 0.0210089 0.0210662 0.0211232 0.0211796 0.0212351 0.0212897 0.0213431 0.0213953 0.0214462 0.0214957 0.0215436 0.0215901 0.0216349 0.021678 0.0217194 0.0217589 0.0217964 0.0218318 0.021865 0.0218958 0.021924 0.0219492 0.0219714 0.0219901 0.022005 0.0220158 0.0220221 0.0220235 0.0220196 0.0220099 0.021994 0.0219712 0.0219409 0.0219021 0.0218539 0.0217951 0.0217245 0.0216407 0.0215423 0.021428 0.0212963 0.0211459 0.0209757 0.0207845 0.0205712 0.0203351 0.0200753 0.0197914 0.019483 0.0191503 0.0187944 0.0184171 0.0180218 0.017613 0.0171956 0.016772 0.0163408 0.0158961 0.0154215 0.0149018 0.0143199 0.0136693 0.012949 0.0121613 0.011311 0.0104016 0.00943641 0.00840802 0.00730898 0.00613261 0.00487197 0.00352337 0.00208774 0.000562346 -0.00105155 -0.00276302 -0.00456699 -0.00646456 -0.00845198 -0.010526 -0.0127265 -0.0149545 -0.017229 -0.0196744 -0.022126 -0.0246174 -0.0271075 -0.0294158 -0.0316986 -0.0350496 -0.0373291 -0.0394508 -0.0417329 -0.0427551 -0.047796 -0.0499678 -0.0511594 -0.0519256 -0.0526796 -0.0565554 -0.0671128 0 0 0 0 0 0 0 0 0 0 0 0 0 0 0 0 0 0 0 0 0 0 0 0 0 0 0 0 0 0 0 0 0 0 0 0 0 0 0 0 0 0 0 0 0 0 0 0 0 0 0 0 0 0 0 0 0 0 0 0 0 0 0 0 0 0 0 0 0 0 0 0 0 0 0 0 0 0 0 0 0 0 0 0 0 0 0 0 0 0 0 0 0 0 0 0 0 0 0 0 0 0 0 0 0 0 0 0 0 0 0 0 0 0 0 0 0 0 0 0 0 0 0 0 0 0 0 0 0 0 0 0 0 0 0 0 0 0 0 0 0 0 0 0 0 0 0 0 0 0 0 0 0 0 0 0 0 0 0 0 0 0 0 0 0 0 0 0 0 0 0 0 0 0 0 0 0 0 0 0 0 0 0 0 0 0 0 0 0 0 0 -0.0512087 -0.0535283 -0.0542906 -0.054435 -0.0543726 -0.0542072 -0.0540108 -0.0538104 -0.0536212 -0.0534513 -0.0533046 -0.0531822 -0.0530835 -0.0530074 -0.0529519 -0.0529153 -0.0528959 -0.0528923 -0.052903 -0.0529272 -0.0529639 -0.0530122 -0.0530712 -0.0531398 -0.0532166 -0.0533002 -0.0533886 -0.0534798 -0.0535714 -0.0536612 -0.0537464 -0.0538247 -0.0538938 -0.0539516 -0.0539963 -0.0540268 -0.0540421 -0.0540421 -0.0540271 -0.0539979 -0.0539558 -0.0539027 -0.0538406 -0.0537718 -0.0536988 -0.0536241 -0.0535501 -0.0534791 -0.053413 -0.0533536 -0.0533023 -0.0532601 -0.0532276 -0.0532052 -0.0531928 -0.05319 -0.0531961 -0.0532101 -0.0532307 -0.0532567 -0.0532866 -0.0533194 -0.0533542 -0.0533902 -0.0534296 -0.0534774 -0.0535444 -0.0536432 -0.0537986 -0.0540433 -0.0543936 -0.0549228 -0.0557711 -0.0574164 -0.0600598 -0.0667075 -0.0613767 0 0 0 0 0 0 0 0 0 0 0 0 0 0 0 0 0 0 0 0 0 0 0 0 0 0 0 0 0 0 0 0 0 0 0 0 0 0 0 0 0 0 0 0 0 0 0 0 0 0 0 0 0 0 -0.0487588 -0.0530556 -0.05479 -0.0552772 -0.0553925 -0.0553431 -0.0551926 -0.0549873 -0.0547474 -0.0544849 -0.0542087 -0.0539241 -0.0536346 -0.0533423 -0.0530487 -0.0527545 -0.0524601 -0.0521656 -0.0518691 -0.0515601 -0.0511854 -0.0506836 -0.0502228 -0.0498358 -0.0494796 -0.0491406 -0.0488151 -0.048501 -0.0481977 -0.0479051 -0.0476242 -0.0473565 -0.0471037 -0.0468676 -0.0466493 -0.0464491 -0.0462676 -0.046104 -0.0459491 -0.0457544 -0.0453407 -0.0444685 -0.0433403 -0.043203 -0.043305 -0.0432014 -0.0427259 -0.041612 -0.0395525 -0.0365855 -0.0324076 -0.0270409 -0.0203643 -0.0118067 -2.60209e-18 