# vtk DataFile Version 2.0
iteration 2133
ASCII

DATASET STRUCTURED_POINTS
DIMENSIONS 621 64 1
ORIGIN 0 0 0
SPACING 0.00161031 0.00161031 0.00161031

POINT_DATA 39744
SCALARS P float 1
LOOKUP_TABLE default
0 0 0 0 0 0 0 0 0 0 0 0 0 0 0 0 0 0 0 0 0 0 0 0 0 0 0 0 0 0 0 0 0 0 0 0 0 0 0 0 0 0 0 0 0 0 0 0 0 0 0 0 0 0 0 0 0 0 0 0 0 0 0 0 0 0 0 0 0 0 0 0 0 0 0 0 0 0 0 0 0 0 0 0 0 0 0 0 0 0 0 0 0 0 0 0 0 0 0 0 0 0 0 0 0 0 0 0 0 0 0 0 0 0 0 0 0 0 0 0 0 0 0 0 0 0 0 0 0 0 0 0 0 0 0 0 0 0 0 0 0 0 0 0 0 0 0 0 0 0 0 0 0 0 0 0 0 0 0 0 0 0 0 0 0 0 0 0 0 0 0 0 0 0 0 0 0 0 0 0 0 0 0 0 0 0 0 0 0 0 0 0 0 0 0 0 0 0 0 0 0 0 0 0 0 0 0 0 0 0 0 0 0 0 0 0 0 0 0 0 0 0 0 0 0 0 0 0 0 0 0 0 0 0 0 0 0 0 0 0 0 0 0 0 0 0 0 0 0 0 0 0 0 0 0 0 0 0 0 0 0 0 0 0 0 0 0 0 0 0 0 0 0 0 0 0 0 0 0 0 0 0 0 0 0 0 0 0 0 0 0 0 0 0 0 0 0 0 0 0 0 0 0 0 0 0 0 0 0 0 0 0 0 0 0 0 0 0 0 0 0 0 0 0 0 0 0 0 0 0 0 0 0 0 0 0 0 0 0 0 0 0 0 0 0 0 0 0 0 0 0 0 0 0 0 0 0 0 0 0 0 0 0 0 0 0 0 0 0 0 0 0 0 0 0 0 0 0 0 0 0 0 0 0 0 0 0 0 0 0 0 0 0 0 0 0 0 0 0 0 0 0 0 0 0 0 0 0 0 0 0 0 0 0 0 0 0 0 0 0 0 0 0 0 0 0 0 0 0 0 0 0 0 0 0 0 0 0 0 0 0 0 0 0 0 0 0 0 0 0 0 0 0 0 0 0 0 0 0 0 0 0 0 0 0 0 0 0 0 0 0 0 0 0 0 0 0 0 0 0 0 0 0 0 0 0 0 0 0 0 0 0 0 0 0 0 0 0 0 0 0 0 0 0 0 0 0 0 0 0 0 0 0 0 0 0 0 0 0 0 0 0 0 0 0 0 0 0 0 0 0 0 0 0 0 0 0 0 0 0 0 0 0 0 0 0 0 0 0 0 0 0 0 0 0 0 0 0 0 0 0 0 0 0 0 0 0 0 0 0 0 0 0 0 0 0 0 0 0 0 0 0 0 0 0 0 0 0 0 0 0 0 0 0 0 0 0 0 0 0 0 0 0 0 0 0 0 0 0 0 0 0 0 0 0 0 0 0 0 0 0 
0.02 0.02 0.02 0.02 0.02 0.02 0.02 0.02 0.02 0.02 0.02 0.02 0.02 0.02 0.02 0.02 0.02 0.02 0.02 0.02 0.02 0.02 0.02 0.02 0.02 0.02 0.02 0.02 0.02 0.02 0.02 0.02 0.02 0.02 0.02 0.02 0.02 0.02 0.02 0.02 0.02 0.02 0.02 0.02 0.02 0.02 0.02 0.02 0.02 0.02 0.02 0.02 0.02 0.02 0.02 0.02 0.02 0.02 0.02 0.02 0.02 0.02 0.02 0.02 0.02 0.02 0.02 0.02 0.02 0.02 0.02 0.02 0.02 0.02 0.02 0.02 0.02 0.02 0.02 0.02 0.02 0.02 0.02 0.02 0.02 0.02 0.02 0.02 0.02 0.02 0.02 0.02 0.02 0.02 0.02 0.02 0.02 0.02 0.02 0.02 0.02 0.02 0.02 0.02 0.02 0.02 0.02 0.02 0.02 0.02 0.02 0.02 0.02 0.02 0.02 0.02 0.02 0.02 0.02 0.02 0.02 0.02 0.02 0.02 0.02 0.02 0.02 0.02 0.02 0.02 0.02 0.02 0.02 0.02 0.02 0.02 0.02 0.02 0.02 0.02 0.02 0.02 0.02 0.02 0.02 0.02 0.02 0.02 0.02 0.02 0.02 0.02 0.02 0.02 0.02 0.02 0.02 0.02 0.02 0.02 0.02 0.02 0.02 0.02 0.02 0.02 0.02 0.02 0.02 0.02 0.02 0.02 0.02 0.02 0.02 0.02 0.02 0.02 0.02 0.02 0.02 0.02 0.02 0.02 0.02 0.02 0.02 0.02 0.02 0.02 0.0200001 0.0200001 0.0200001 0.0200001 0.0200001 0.0200001 0.0200001 0.0200001 0.0200001 0.0200001 0.0200001 0.0200001 0.0200001 0.0200001 0.0200001 0.0200001 0.0200001 0.0200001 0.0200001 0.0200001 0.0200002 0.0200002 0.0200002 0.0200002 0.0200002 0.0200001 0.0200001 0.0200001 0.0200001 0.0200001 0.0200001 0.0200001 0.02 0.02 0.02 0.0199999 0.0199999 0.0199998 0.0199997 0.0199997 0.0199996 0.0199995 0.0199994 0.0199993 0.0199991 0.019999 0.0199988 0.0199986 0.0199984 0.0199982 0.0199979 0.0199976 0.0199973 0.019997 0.0199966 0.0199962 0.0199958 0.0199953 0.0199948 0.0199943 0.0199937 0.019993 0.0199923 0.0199916 0.0199908 0.01999 0.0199891 0.0199881 0.0199871 0.019986 0.0199849 0.0199836 0.0199824 0.019981 0.0199796 0.019978 0.0199764 0.0199748 0.019973 0.0199711 0.0199692 0.0199672 0.0199651 0.0199628 0.0199605 0.0199581 0.0199556 0.0199529 0.0199502 0.0199473 0.0199444 0.0199414 0.0199383 0.019935 0.0199317 0.0199283 0.0199248 0.0199212 0.0199175 0.0199137 0.0199098 0.0199058 0.0199017 0.0198975 0.0198933 0.0198889 0.0198845 0.01988 0.0198755 0.0198709 0.0198662 0.0198614 0.0198566 0.0198517 0.0198468 0.0198419 0.0198369 0.0198319 0.0198268 0.0198217 0.0198166 0.0198115 0.0198064 0.0198013 0.0197961 0.019791 0.0197859 0.0197808 0.0197758 0.0197707 0.0197657 0.0197607 0.0197557 0.0197508 0.019746 0.0197411 0.0197364 0.0197316 0.019727 0.0197224 0.0197178 0.0197133 0.0197088 0.0197044 0.0197001 0.0196958 0.0196915 0.0196873 0.0196831 0.019679 0.0196749 0.0196709 0.0196668 0.0196628 0.0196588 0.0196547 0.0196507 0.0196467 0.0196426 0.0196385 0.0196344 0.0196302 0.019626 0.0196217 0.0196173 0.0196129 0.0196083 0.0196037 0.0195989 0.019594 0.019589 0.0195838 0.0195785 0.019573 0.0195674 0.0195616 0.0195556 0.0195495 0.0195432 0.0195366 0.0195298 0.0195229 0.0195158 0.0195085 0.0195012 0.0194938 0.019486 0.0194784 0.0194707 0.0194628 0.0194548 0.0194468 0.0194386 0.0194303 0.0194219 0.0194135 0.019405 0.0193965 0.0193879 0.0193793 0.0193707 0.0193621 0.0193535 0.019345 0.0193364 0.019328 0.0193196 0.0193113 0.0193031 0.019295 0.019287 0.0192792 0.0192715 0.0192639 0.0192566 0.0192494 0.0192423 0.0192355 0.0192289 0.0192224 0.0192162 0.0192102 0.0192043 0.0191987 0.0191933 0.0191881 0.0191832 0.0191784 0.0191738 0.0191694 0.0191652 0.0191612 0.0191574 0.0191537 0.0191501 0.0191467 0.0191434 0.0191402 0.0191371 0.019134 0.0191311 0.0191282 0.0191253 0.0191224 0.0191196 0.0191167 0.0191139 0.0191111 0.0191084 0.0191056 0.019103 0.0191004 0.0190979 0.0190955 0.0190933 0.0190914 0.0190898 0.0190885 0.0190877 0.0190874 0.0190876 0.0190886 0.0190903 0.0190928 0.0190963 0.0191008 0.0191064 0.0191133 0.0191215 0.0191312 0.0191423 0.0191551 0.0191695 0.0191856 0.0192036 0.0192234 0.0192451 0.0192687 0.0192941 0.0193215 0.0193507 0.0193817 0.0194144 0.0194489 0.0194849 0.0195226 0.0195619 0.0196026 0.0196448 0.0196885 0.0197335 0.0197753 0.0198183 0.01986 0.0199015 0.0199428 0.0199839 0.020025 0.020065 0.0201025 0.020135 0.0201592 0.0201719 0.0201692 0.0201475 0.020103 0.0200319 0.0199303 0.0197941 0.0196193 0.0194017 0.0191377 0.0188239 0.0184574 0.0180368 0.017563 0.0170439 0.0164836 0.0158974 0.0153244 0.0151925 0.0169237 0 0 0 0 0 0 0 0 0 0 0 0 0 0 0 0 0 0 0 0 0 0 0 0 0 0 0 0 0 0 0 0 0 0 0 0 0 0 0 0 0 0 0 0 0 0 0 0 0 0 0 0 0 0 0 0 0 0 0 0 0 0 0 0 0 0 0 0 0 0 0 0 0 0 0 0 0 0 0 0 0 0 0 0 0 0 0 0 0 0 0 0 0 0 0 0 0 0 0 0 0 0 0 0 0 0 0 0 0 
0.02 0.02 0.02 0.02 0.02 0.02 0.02 0.02 0.02 0.02 0.02 0.02 0.02 0.02 0.02 0.02 0.02 0.02 0.02 0.02 0.02 0.02 0.02 0.02 0.02 0.02 0.02 0.02 0.02 0.02 0.02 0.02 0.02 0.02 0.02 0.02 0.02 0.02 0.02 0.02 0.02 0.02 0.02 0.02 0.02 0.02 0.02 0.02 0.02 0.02 0.02 0.02 0.02 0.02 0.02 0.02 0.02 0.02 0.02 0.02 0.02 0.02 0.02 0.02 0.02 0.02 0.02 0.02 0.02 0.02 0.02 0.02 0.02 0.02 0.02 0.02 0.02 0.02 0.02 0.02 0.02 0.02 0.02 0.02 0.02 0.02 0.02 0.02 0.02 0.02 0.02 0.02 0.02 0.02 0.02 0.02 0.02 0.02 0.02 0.02 0.02 0.02 0.02 0.02 0.02 0.02 0.02 0.02 0.02 0.02 0.02 0.02 0.02 0.02 0.02 0.02 0.02 0.02 0.02 0.02 0.02 0.02 0.02 0.02 0.02 0.02 0.02 0.02 0.02 0.02 0.02 0.02 0.02 0.02 0.02 0.02 0.02 0.02 0.02 0.02 0.02 0.02 0.02 0.02 0.02 0.02 0.02 0.02 0.02 0.02 0.02 0.02 0.02 0.02 0.02 0.02 0.02 0.02 0.02 0.02 0.02 0.02 0.02 0.02 0.02 0.02 0.02 0.02 0.02 0.02 0.02 0.02 0.02 0.02 0.02 0.02 0.02 0.02 0.02 0.02 0.02 0.02 0.02 0.02 0.02 0.02 0.02 0.02 0.02 0.02 0.0200001 0.0200001 0.0200001 0.0200001 0.0200001 0.0200001 0.0200001 0.0200001 0.0200001 0.0200001 0.0200001 0.0200001 0.0200001 0.0200001 0.0200001 0.0200001 0.0200001 0.0200001 0.0200001 0.0200001 0.0200002 0.0200002 0.0200002 0.0200002 0.0200002 0.0200001 0.0200001 0.0200001 0.0200001 0.0200001 0.0200001 0.0200001 0.02 0.02 0.02 0.0199999 0.0199999 0.0199998 0.0199998 0.0199997 0.0199996 0.0199995 0.0199994 0.0199993 0.0199991 0.019999 0.0199988 0.0199986 0.0199984 0.0199982 0.0199979 0.0199976 0.0199973 0.019997 0.0199966 0.0199963 0.0199958 0.0199954 0.0199949 0.0199943 0.0199937 0.0199931 0.0199924 0.0199917 0.0199909 0.0199901 0.0199892 0.0199882 0.0199872 0.0199861 0.019985 0.0199838 0.0199825 0.0199811 0.0199797 0.0199782 0.0199766 0.0199749 0.0199731 0.0199713 0.0199694 0.0199674 0.0199652 0.019963 0.0199607 0.0199583 0.0199558 0.0199532 0.0199504 0.0199476 0.0199447 0.0199417 0.0199386 0.0199354 0.019932 0.0199286 0.0199251 0.0199215 0.0199178 0.019914 0.0199101 0.0199062 0.0199021 0.0198979 0.0198937 0.0198893 0.0198849 0.0198805 0.0198759 0.0198713 0.0198666 0.0198618 0.019857 0.0198522 0.0198472 0.0198423 0.0198373 0.0198323 0.0198272 0.0198221 0.019817 0.0198119 0.0198068 0.0198016 0.0197965 0.0197914 0.0197863 0.0197812 0.0197761 0.019771 0.019766 0.019761 0.019756 0.0197511 0.0197462 0.0197414 0.0197366 0.0197318 0.0197271 0.0197225 0.0197179 0.0197133 0.0197089 0.0197044 0.0197001 0.0196957 0.0196915 0.0196872 0.019683 0.0196789 0.0196747 0.0196706 0.0196666 0.0196625 0.0196585 0.0196544 0.0196504 0.0196463 0.0196422 0.0196381 0.019634 0.0196298 0.0196255 0.0196212 0.0196168 0.0196123 0.0196077 0.019603 0.0195983 0.0195933 0.0195883 0.0195831 0.0195778 0.0195723 0.0195667 0.0195609 0.0195549 0.0195487 0.0195424 0.019536 0.0195294 0.0195226 0.0195157 0.0195085 0.0195014 0.0194942 0.0194869 0.0194794 0.0194718 0.019464 0.0194562 0.0194482 0.0194401 0.019432 0.0194237 0.0194154 0.019407 0.0193986 0.0193902 0.0193817 0.0193732 0.0193647 0.0193562 0.0193478 0.0193394 0.019331 0.0193228 0.0193146 0.0193065 0.0192985 0.0192906 0.0192828 0.0192752 0.0192678 0.0192605 0.0192533 0.0192464 0.0192396 0.019233 0.0192267 0.0192205 0.0192145 0.0192087 0.0192032 0.0191978 0.0191927 0.0191878 0.019183 0.0191785 0.0191741 0.01917 0.019166 0.0191622 0.0191585 0.019155 0.0191516 0.0191483 0.0191451 0.0191421 0.0191391 0.0191361 0.0191332 0.0191304 0.0191275 0.0191247 0.0191219 0.0191192 0.0191164 0.0191136 0.0191109 0.0191083 0.0191057 0.0191032 0.0191009 0.0190987 0.0190968 0.0190951 0.0190938 0.0190929 0.0190926 0.0190927 0.0190936 0.0190951 0.0190975 0.0191009 0.0191052 0.0191106 0.0191173 0.0191252 0.0191345 0.0191453 0.0191577 0.0191717 0.0191875 0.019205 0.0192243 0.0192455 0.0192685 0.0192934 0.0193202 0.0193489 0.0193793 0.0194114 0.0194453 0.0194809 0.019518 0.0195567 0.019597 0.0196387 0.019682 0.0197265 0.0197721 0.0198171 0.01986 0.019903 0.0199445 0.0199854 0.0200257 0.0200647 0.0201012 0.0201327 0.0201561 0.0201682 0.0201652 0.0201436 0.0200995 0.020029 0.0199283 0.0197933 0.0196199 0.019404 0.0191419 0.0188302 0.0184661 0.018048 0.0175774 0.0170637 0.0165245 0.0159561 0.0154427 0.0151442 0.015297 0.0148281 0.0142915 0.0138797 0.0138836 0.014557 0.014871 0 0 0 0 0 0 0 0 0 0 0 0 0 0 0 0 0 0 0 0 0 0 0 0 0 0 0 0 0 0 0 0 0 0 0 0 0 0 0 0 0 0 0 0 0 0 0 0 0 0 0 0 0 0 0 0 0 0 0 0 0 0 0 0 0 0 0 0 0 0 0 0 0 0 0 0 0 0 0 0 0 0 0 0 0 0 0 0 0 0 0 0 0 0 0 0 0 0 0 0 0 0 0 
0.02 0.02 0.02 0.02 0.02 0.02 0.02 0.02 0.02 0.02 0.02 0.02 0.02 0.02 0.02 0.02 0.02 0.02 0.02 0.02 0.02 0.02 0.02 0.02 0.02 0.02 0.02 0.02 0.02 0.02 0.02 0.02 0.02 0.02 0.02 0.02 0.02 0.02 0.02 0.02 0.02 0.02 0.02 0.02 0.02 0.02 0.02 0.02 0.02 0.02 0.02 0.02 0.02 0.02 0.02 0.02 0.02 0.02 0.02 0.02 0.02 0.02 0.02 0.02 0.02 0.02 0.02 0.02 0.02 0.02 0.02 0.02 0.02 0.02 0.02 0.02 0.02 0.02 0.02 0.02 0.02 0.02 0.02 0.02 0.02 0.02 0.02 0.02 0.02 0.02 0.02 0.02 0.02 0.02 0.02 0.02 0.02 0.02 0.02 0.02 0.02 0.02 0.02 0.02 0.02 0.02 0.02 0.02 0.02 0.02 0.02 0.02 0.02 0.02 0.02 0.02 0.02 0.02 0.02 0.02 0.02 0.02 0.02 0.02 0.02 0.02 0.02 0.02 0.02 0.02 0.02 0.02 0.02 0.02 0.02 0.02 0.02 0.02 0.02 0.02 0.02 0.02 0.02 0.02 0.02 0.02 0.02 0.02 0.02 0.02 0.02 0.02 0.02 0.02 0.02 0.02 0.02 0.02 0.02 0.02 0.02 0.02 0.02 0.02 0.02 0.02 0.02 0.02 0.02 0.02 0.02 0.02 0.02 0.02 0.02 0.02 0.02 0.02 0.02 0.02 0.02 0.02 0.02 0.02 0.02 0.02 0.02 0.02 0.02 0.02 0.0200001 0.0200001 0.0200001 0.0200001 0.0200001 0.0200001 0.0200001 0.0200001 0.0200001 0.0200001 0.0200001 0.0200001 0.0200001 0.0200001 0.0200001 0.0200001 0.0200001 0.0200001 0.0200001 0.0200001 0.0200002 0.0200002 0.0200002 0.0200002 0.0200002 0.0200001 0.0200001 0.0200001 0.0200001 0.0200001 0.0200001 0.0200001 0.02 0.02 0.02 0.0199999 0.0199999 0.0199998 0.0199998 0.0199997 0.0199996 0.0199995 0.0199994 0.0199993 0.0199991 0.019999 0.0199988 0.0199986 0.0199984 0.0199982 0.019998 0.0199977 0.0199974 0.0199971 0.0199967 0.0199963 0.0199959 0.0199954 0.0199949 0.0199944 0.0199938 0.0199932 0.0199925 0.0199918 0.019991 0.0199902 0.0199893 0.0199883 0.0199873 0.0199862 0.0199851 0.0199839 0.0199826 0.0199813 0.0199798 0.0199783 0.0199768 0.0199751 0.0199733 0.0199715 0.0199696 0.0199676 0.0199655 0.0199633 0.019961 0.0199586 0.0199561 0.0199535 0.0199508 0.019948 0.0199451 0.019942 0.0199389 0.0199357 0.0199324 0.019929 0.0199255 0.0199219 0.0199183 0.0199145 0.0199106 0.0199066 0.0199026 0.0198984 0.0198942 0.0198898 0.0198854 0.019881 0.0198764 0.0198718 0.0198671 0.0198624 0.0198576 0.0198527 0.0198478 0.0198428 0.0198379 0.0198328 0.0198278 0.0198227 0.0198176 0.0198125 0.0198073 0.0198022 0.019797 0.0197919 0.0197868 0.0197816 0.0197765 0.0197715 0.0197664 0.0197614 0.0197564 0.0197515 0.0197465 0.0197417 0.0197369 0.0197321 0.0197274 0.0197227 0.0197181 0.0197135 0.019709 0.0197045 0.0197001 0.0196957 0.0196914 0.0196871 0.0196829 0.0196787 0.0196745 0.0196704 0.0196663 0.0196622 0.0196581 0.019654 0.0196499 0.0196458 0.0196417 0.0196375 0.0196334 0.0196291 0.0196248 0.0196205 0.019616 0.0196115 0.0196069 0.0196022 0.0195974 0.0195925 0.0195874 0.0195822 0.0195769 0.0195715 0.0195659 0.0195601 0.0195543 0.0195483 0.0195421 0.0195358 0.0195294 0.0195228 0.0195162 0.0195094 0.0195025 0.0194955 0.0194883 0.019481 0.0194736 0.019466 0.0194584 0.0194506 0.0194428 0.0194348 0.0194268 0.0194187 0.0194105 0.0194023 0.0193941 0.0193858 0.0193776 0.0193693 0.019361 0.0193528 0.0193446 0.0193365 0.0193284 0.0193204 0.0193125 0.0193047 0.019297 0.0192895 0.019282 0.0192748 0.0192676 0.0192607 0.0192539 0.0192472 0.0192408 0.0192346 0.0192285 0.0192227 0.019217 0.0192115 0.0192063 0.0192012 0.0191964 0.0191917 0.0191873 0.019183 0.0191789 0.0191749 0.0191712 0.0191675 0.0191641 0.0191607 0.0191575 0.0191543 0.0191513 0.0191483 0.0191454 0.0191425 0.0191397 0.0191369 0.0191341 0.0191313 0.0191285 0.0191258 0.0191231 0.0191204 0.0191177 0.0191152 0.0191127 0.0191104 0.0191082 0.0191063 0.0191046 0.0191033 0.0191024 0.019102 0.0191021 0.0191029 0.0191044 0.0191067 0.0191099 0.0191141 0.0191194 0.0191259 0.0191336 0.0191427 0.0191533 0.0191654 0.0191792 0.0191946 0.0192117 0.0192307 0.0192515 0.0192742 0.0192987 0.0193251 0.0193533 0.0193833 0.019415 0.0194485 0.0194837 0.0195205 0.0195589 0.0195988 0.0196403 0.0196833 0.0197277 0.0197734 0.0198201 0.0198665 0.0199108 0.0199537 0.0199949 0.0200345 0.0200722 0.020107 0.0201368 0.0201587 0.0201694 0.0201655 0.020143 0.0200985 0.0200279 0.0199274 0.0197928 0.0196202 0.0194056 0.0191451 0.0188354 0.0184742 0.0180604 0.017597 0.0170969 0.0165899 0.0160738 0.0156169 0.0153332 0.0151225 0.0146751 0.0142096 0.0137668 0.0136854 0.0136707 0.0131395 0 0 0.000695017 -0.00114459 -0.00305283 -0.00527267 0 0 0 0 0 0 0 0 0 0 0 0 0 0 0 0 0 0 0 0 0 0 0 0 0 0 0 0 0 0 0 0 0 0 0 0 0 0 0 0 0 0 0 0 0 0 0 0 0 0 0 0 0 0 0 0 0 0 0 0 0 0 0 0 0 0 0 0 0 0 0 0 0 0 0 0 0 0 0 0 0 0 0 0 0 0 0 0 0 0 0 0 0 0 0 0 -8.67362e-19 
0.02 0.02 0.02 0.02 0.02 0.02 0.02 0.02 0.02 0.02 0.02 0.02 0.02 0.02 0.02 0.02 0.02 0.02 0.02 0.02 0.02 0.02 0.02 0.02 0.02 0.02 0.02 0.02 0.02 0.02 0.02 0.02 0.02 0.02 0.02 0.02 0.02 0.02 0.02 0.02 0.02 0.02 0.02 0.02 0.02 0.02 0.02 0.02 0.02 0.02 0.02 0.02 0.02 0.02 0.02 0.02 0.02 0.02 0.02 0.02 0.02 0.02 0.02 0.02 0.02 0.02 0.02 0.02 0.02 0.02 0.02 0.02 0.02 0.02 0.02 0.02 0.02 0.02 0.02 0.02 0.02 0.02 0.02 0.02 0.02 0.02 0.02 0.02 0.02 0.02 0.02 0.02 0.02 0.02 0.02 0.02 0.02 0.02 0.02 0.02 0.02 0.02 0.02 0.02 0.02 0.02 0.02 0.02 0.02 0.02 0.02 0.02 0.02 0.02 0.02 0.02 0.02 0.02 0.02 0.02 0.02 0.02 0.02 0.02 0.02 0.02 0.02 0.02 0.02 0.02 0.02 0.02 0.02 0.02 0.02 0.02 0.02 0.02 0.02 0.02 0.02 0.02 0.02 0.02 0.02 0.02 0.02 0.02 0.02 0.02 0.02 0.02 0.02 0.02 0.02 0.02 0.02 0.02 0.02 0.02 0.02 0.02 0.02 0.02 0.02 0.02 0.02 0.02 0.02 0.02 0.02 0.02 0.02 0.02 0.02 0.02 0.02 0.02 0.02 0.02 0.02 0.02 0.02 0.02 0.02 0.02 0.02 0.02 0.02 0.02 0.0200001 0.0200001 0.0200001 0.0200001 0.0200001 0.0200001 0.0200001 0.0200001 0.0200001 0.0200001 0.0200001 0.0200001 0.0200001 0.0200001 0.0200001 0.0200001 0.0200001 0.0200001 0.0200001 0.0200001 0.0200002 0.0200002 0.0200002 0.0200002 0.0200002 0.0200001 0.0200001 0.0200001 0.0200001 0.0200001 0.0200001 0.0200001 0.0200001 0.02 0.02 0.0199999 0.0199999 0.0199998 0.0199998 0.0199997 0.0199996 0.0199995 0.0199994 0.0199993 0.0199992 0.019999 0.0199989 0.0199987 0.0199985 0.0199982 0.019998 0.0199977 0.0199974 0.0199971 0.0199967 0.0199964 0.0199959 0.0199955 0.019995 0.0199945 0.0199939 0.0199933 0.0199926 0.0199919 0.0199911 0.0199903 0.0199894 0.0199885 0.0199875 0.0199864 0.0199853 0.0199841 0.0199828 0.0199815 0.0199801 0.0199786 0.019977 0.0199754 0.0199736 0.0199718 0.0199699 0.0199679 0.0199658 0.0199636 0.0199613 0.019959 0.0199565 0.0199539 0.0199512 0.0199484 0.0199455 0.0199425 0.0199395 0.0199363 0.019933 0.0199296 0.0199261 0.0199225 0.0199189 0.0199151 0.0199112 0.0199073 0.0199032 0.0198991 0.0198949 0.0198906 0.0198862 0.0198817 0.0198772 0.0198726 0.0198679 0.0198632 0.0198584 0.0198535 0.0198486 0.0198437 0.0198387 0.0198337 0.0198286 0.0198235 0.0198184 0.0198133 0.0198082 0.019803 0.0197979 0.0197927 0.0197876 0.0197824 0.0197773 0.0197722 0.0197672 0.0197621 0.0197571 0.0197521 0.0197472 0.0197423 0.0197375 0.0197327 0.0197279 0.0197232 0.0197185 0.0197139 0.0197094 0.0197049 0.0197004 0.019696 0.0196916 0.0196873 0.019683 0.0196788 0.0196746 0.0196704 0.0196662 0.0196621 0.0196579 0.0196538 0.0196497 0.0196455 0.0196413 0.0196371 0.0196329 0.0196286 0.0196243 0.0196199 0.0196154 0.0196109 0.0196063 0.0196016 0.0195968 0.0195919 0.0195869 0.0195818 0.0195766 0.0195712 0.0195658 0.0195602 0.0195545 0.0195487 0.0195428 0.0195368 0.0195306 0.0195244 0.019518 0.0195114 0.0195048 0.019498 0.019491 0.019484 0.0194768 0.0194695 0.0194622 0.0194547 0.0194471 0.0194394 0.0194317 0.0194239 0.0194161 0.0194082 0.0194002 0.0193923 0.0193843 0.0193764 0.0193684 0.0193605 0.0193526 0.0193447 0.019337 0.0193293 0.0193216 0.0193141 0.0193067 0.0192994 0.0192922 0.0192852 0.0192783 0.0192715 0.0192649 0.0192585 0.0192523 0.0192462 0.0192403 0.0192346 0.0192291 0.0192238 0.0192187 0.0192138 0.019209 0.0192045 0.0192001 0.0191959 0.0191919 0.019188 0.0191843 0.0191807 0.0191773 0.019174 0.0191708 0.0191677 0.0191647 0.0191617 0.0191589 0.019156 0.0191532 0.0191504 0.0191477 0.019145 0.0191422 0.0191395 0.0191368 0.0191342 0.0191316 0.0191291 0.0191266 0.0191243 0.0191222 0.0191203 0.0191187 0.0191174 0.0191165 0.0191161 0.0191163 0.019117 0.0191185 0.0191208 0.019124 0.0191281 0.0191333 0.0191397 0.0191473 0.0191563 0.0191667 0.0191786 0.0191921 0.0192073 0.0192242 0.0192428 0.0192633 0.0192856 0.0193097 0.0193357 0.0193635 0.019393 0.0194244 0.0194574 0.0194921 0.0195285 0.0195665 0.019606 0.0196472 0.0196898 0.0197339 0.0197793 0.0198258 0.019873 0.0199197 0.0199643 0.0200066 0.0200462 0.020083 0.0201161 0.0201438 0.0201636 0.0201724 0.0201667 0.0201431 0.0200976 0.0200266 0.019926 0.0197919 0.0196201 0.0194069 0.0191486 0.0188421 0.0184857 0.0180799 0.0176297 0.0171527 0.0166773 0.0162306 0.015801 0.0154654 0.0151132 0.0146897 0.014189 0.0137343 0.0134604 0.0133009 0.014541 0 0.00354015 0.0018019 -0.000230508 -0.00255743 -0.00521131 -0.00761273 -0.0105083 0 0 0 0 0 0 0 0 0 0 0 0 0 0 0 0 0 0 0 0 0 0 0 0 0 0 0 0 0 0 0 0 0 0 0 0 0 0 0 0 0 0 0 0 0 0 0 0 0 0 0 0 0 0 0 0 0 0 0 0 0 0 0 0 0 0 0 0 0 0 0 0 0 0 0 0 0 0 0 0 0 0 0 0 0 0 0 0 0 0 0 0 0 0 -2.60209e-18 
0.02 0.02 0.02 0.02 0.02 0.02 0.02 0.02 0.02 0.02 0.02 0.02 0.02 0.02 0.02 0.02 0.02 0.02 0.02 0.02 0.02 0.02 0.02 0.02 0.02 0.02 0.02 0.02 0.02 0.02 0.02 0.02 0.02 0.02 0.02 0.02 0.02 0.02 0.02 0.02 0.02 0.02 0.02 0.02 0.02 0.02 0.02 0.02 0.02 0.02 0.02 0.02 0.02 0.02 0.02 0.02 0.02 0.02 0.02 0.02 0.02 0.02 0.02 0.02 0.02 0.02 0.02 0.02 0.02 0.02 0.02 0.02 0.02 0.02 0.02 0.02 0.02 0.02 0.02 0.02 0.02 0.02 0.02 0.02 0.02 0.02 0.02 0.02 0.02 0.02 0.02 0.02 0.02 0.02 0.02 0.02 0.02 0.02 0.02 0.02 0.02 0.02 0.02 0.02 0.02 0.02 0.02 0.02 0.02 0.02 0.02 0.02 0.02 0.02 0.02 0.02 0.02 0.02 0.02 0.02 0.02 0.02 0.02 0.02 0.02 0.02 0.02 0.02 0.02 0.02 0.02 0.02 0.02 0.02 0.02 0.02 0.02 0.02 0.02 0.02 0.02 0.02 0.02 0.02 0.02 0.02 0.02 0.02 0.02 0.02 0.02 0.02 0.02 0.02 0.02 0.02 0.02 0.02 0.02 0.02 0.02 0.02 0.02 0.02 0.02 0.02 0.02 0.02 0.02 0.02 0.02 0.02 0.02 0.02 0.02 0.02 0.02 0.02 0.02 0.02 0.02 0.02 0.02 0.02 0.02 0.02 0.02 0.02 0.02 0.02 0.02 0.0200001 0.0200001 0.0200001 0.0200001 0.0200001 0.0200001 0.0200001 0.0200001 0.0200001 0.0200001 0.0200001 0.0200001 0.0200001 0.0200001 0.0200001 0.0200001 0.0200001 0.0200001 0.0200001 0.0200002 0.0200002 0.0200002 0.0200002 0.0200002 0.0200002 0.0200001 0.0200001 0.0200001 0.0200001 0.0200001 0.0200001 0.0200001 0.02 0.02 0.02 0.0199999 0.0199999 0.0199998 0.0199997 0.0199996 0.0199996 0.0199994 0.0199993 0.0199992 0.0199991 0.0199989 0.0199987 0.0199985 0.0199983 0.019998 0.0199978 0.0199975 0.0199972 0.0199968 0.0199964 0.019996 0.0199956 0.0199951 0.0199946 0.019994 0.0199934 0.0199927 0.019992 0.0199913 0.0199904 0.0199896 0.0199887 0.0199877 0.0199866 0.0199855 0.0199843 0.0199831 0.0199817 0.0199803 0.0199789 0.0199773 0.0199757 0.019974 0.0199722 0.0199703 0.0199683 0.0199662 0.0199641 0.0199618 0.0199595 0.019957 0.0199545 0.0199518 0.019949 0.0199462 0.0199432 0.0199401 0.019937 0.0199337 0.0199303 0.0199269 0.0199233 0.0199197 0.0199159 0.0199121 0.0199081 0.0199041 0.0199 0.0198958 0.0198915 0.0198871 0.0198827 0.0198782 0.0198736 0.0198689 0.0198642 0.0198595 0.0198546 0.0198497 0.0198448 0.0198398 0.0198348 0.0198298 0.0198247 0.0198196 0.0198145 0.0198093 0.0198042 0.019799 0.0197939 0.0197887 0.0197836 0.0197785 0.0197734 0.0197683 0.0197632 0.0197582 0.0197532 0.0197482 0.0197433 0.0197384 0.0197336 0.0197288 0.0197241 0.0197194 0.0197147 0.0197101 0.0197056 0.0197011 0.0196966 0.0196922 0.0196878 0.0196835 0.0196792 0.0196749 0.0196707 0.0196665 0.0196622 0.019658 0.0196539 0.0196497 0.0196455 0.0196412 0.019637 0.0196327 0.0196284 0.0196241 0.0196197 0.0196152 0.0196107 0.0196061 0.0196015 0.0195968 0.019592 0.0195871 0.0195821 0.0195771 0.0195719 0.0195667 0.0195614 0.0195559 0.0195504 0.0195447 0.019539 0.0195331 0.0195271 0.0195209 0.0195147 0.0195083 0.0195018 0.0194952 0.0194884 0.0194816 0.0194747 0.0194676 0.0194605 0.0194533 0.019446 0.0194386 0.0194312 0.0194237 0.0194162 0.0194087 0.0194011 0.0193935 0.019386 0.0193784 0.0193708 0.0193633 0.0193559 0.0193484 0.0193411 0.0193338 0.0193266 0.0193195 0.0193125 0.0193057 0.0192989 0.0192923 0.0192858 0.0192795 0.0192733 0.0192673 0.0192615 0.0192558 0.0192503 0.019245 0.0192399 0.0192349 0.0192301 0.0192255 0.0192211 0.0192168 0.0192127 0.0192088 0.019205 0.0192014 0.0191979 0.0191945 0.0191913 0.0191881 0.0191851 0.0191821 0.0191792 0.0191764 0.0191736 0.0191709 0.0191682 0.0191655 0.0191628 0.0191601 0.0191575 0.0191549 0.0191523 0.0191498 0.0191473 0.019145 0.0191428 0.0191407 0.0191389 0.0191374 0.0191362 0.0191354 0.0191351 0.0191353 0.0191361 0.0191377 0.01914 0.0191432 0.0191473 0.0191525 0.0191589 0.0191664 0.0191753 0.0191856 0.0191973 0.0192106 0.0192256 0.0192422 0.0192605 0.0192807 0.0193026 0.0193263 0.0193519 0.0193792 0.0194083 0.0194391 0.0194716 0.0195058 0.0195416 0.019579 0.019618 0.0196585 0.0197006 0.0197441 0.0197889 0.0198348 0.0198816 0.0199285 0.0199744 0.0200178 0.0200579 0.0200942 0.020126 0.0201517 0.0201692 0.0201757 0.020168 0.0201427 0.0200961 0.0200244 0.0199237 0.0197901 0.0196195 0.0194083 0.019153 0.0188513 0.0185025 0.0181094 0.0176792 0.0172296 0.0167882 0.0163753 0.0159803 0.0155715 0.0151925 0.0147413 0.0142346 0.0137474 0.0132197 0.0128283 0.0121412 0.00947168 0.00584673 0.00278779 0.00036464 -0.00266727 -0.00503317 -0.00732536 -0.00975912 -0.0123107 -0.0156219 -0.0183636 0 0 0 0 0 0 0 0 0 0 0 0 0 0 0 0 0 0 0 0 0 0 0 0 0 0 0 0 0 0 0 0 0 0 0 0 0 0 0 0 0 0 0 0 0 0 0 0 0 0 0 0 0 0 0 0 0 0 0 0 0 0 0 0 0 0 0 0 0 0 0 0 0 0 0 0 0 0 0 0 0 0 0 0 0 0 0 0 0 0 0 -3.03577e-18 
0.02 0.02 0.02 0.02 0.02 0.02 0.02 0.02 0.02 0.02 0.02 0.02 0.02 0.02 0.02 0.02 0.02 0.02 0.02 0.02 0.02 0.02 0.02 0.02 0.02 0.02 0.02 0.02 0.02 0.02 0.02 0.02 0.02 0.02 0.02 0.02 0.02 0.02 0.02 0.02 0.02 0.02 0.02 0.02 0.02 0.02 0.02 0.02 0.02 0.02 0.02 0.02 0.02 0.02 0.02 0.02 0.02 0.02 0.02 0.02 0.02 0.02 0.02 0.02 0.02 0.02 0.02 0.02 0.02 0.02 0.02 0.02 0.02 0.02 0.02 0.02 0.02 0.02 0.02 0.02 0.02 0.02 0.02 0.02 0.02 0.02 0.02 0.02 0.02 0.02 0.02 0.02 0.02 0.02 0.02 0.02 0.02 0.02 0.02 0.02 0.02 0.02 0.02 0.02 0.02 0.02 0.02 0.02 0.02 0.02 0.02 0.02 0.02 0.02 0.02 0.02 0.02 0.02 0.02 0.02 0.02 0.02 0.02 0.02 0.02 0.02 0.02 0.02 0.02 0.02 0.02 0.02 0.02 0.02 0.02 0.02 0.02 0.02 0.02 0.02 0.02 0.02 0.02 0.02 0.02 0.02 0.02 0.02 0.02 0.02 0.02 0.02 0.02 0.02 0.02 0.02 0.02 0.02 0.02 0.02 0.02 0.02 0.02 0.02 0.02 0.02 0.02 0.02 0.02 0.02 0.02 0.02 0.02 0.02 0.02 0.02 0.02 0.02 0.02 0.02 0.02 0.02 0.02 0.02 0.02 0.02 0.02 0.02 0.02 0.02 0.02 0.0200001 0.0200001 0.0200001 0.0200001 0.0200001 0.0200001 0.0200001 0.0200001 0.0200001 0.0200001 0.0200001 0.0200001 0.0200001 0.0200001 0.0200001 0.0200001 0.0200001 0.0200001 0.0200001 0.0200002 0.0200002 0.0200002 0.0200002 0.0200002 0.0200002 0.0200002 0.0200001 0.0200001 0.0200001 0.0200001 0.0200001 0.0200001 0.02 0.02 0.02 0.0199999 0.0199999 0.0199998 0.0199997 0.0199997 0.0199996 0.0199995 0.0199994 0.0199992 0.0199991 0.0199989 0.0199988 0.0199986 0.0199983 0.0199981 0.0199978 0.0199976 0.0199972 0.0199969 0.0199965 0.0199961 0.0199957 0.0199952 0.0199947 0.0199941 0.0199935 0.0199929 0.0199922 0.0199914 0.0199906 0.0199898 0.0199889 0.0199879 0.0199869 0.0199858 0.0199846 0.0199834 0.0199821 0.0199807 0.0199792 0.0199777 0.0199761 0.0199744 0.0199726 0.0199707 0.0199688 0.0199667 0.0199646 0.0199624 0.0199601 0.0199576 0.0199551 0.0199525 0.0199498 0.0199469 0.019944 0.0199409 0.0199378 0.0199346 0.0199312 0.0199278 0.0199243 0.0199206 0.0199169 0.0199131 0.0199092 0.0199052 0.0199011 0.019897 0.0198927 0.0198884 0.019884 0.0198795 0.0198749 0.0198703 0.0198656 0.0198608 0.019856 0.0198512 0.0198462 0.0198413 0.0198363 0.0198313 0.0198262 0.0198211 0.019816 0.0198109 0.0198057 0.0198006 0.0197954 0.0197903 0.0197851 0.01978 0.0197749 0.0197698 0.0197647 0.0197597 0.0197547 0.0197497 0.0197447 0.0197398 0.0197349 0.0197301 0.0197253 0.0197206 0.0197159 0.0197113 0.0197067 0.0197021 0.0196976 0.0196931 0.0196887 0.0196843 0.0196799 0.0196756 0.0196713 0.019667 0.0196627 0.0196585 0.0196542 0.01965 0.0196458 0.0196415 0.0196373 0.019633 0.0196287 0.0196243 0.01962 0.0196156 0.0196112 0.0196067 0.0196021 0.0195976 0.0195929 0.0195882 0.0195835 0.0195786 0.0195737 0.0195687 0.0195636 0.0195584 0.0195531 0.0195477 0.0195422 0.0195366 0.0195309 0.0195251 0.0195192 0.0195131 0.019507 0.0195008 0.0194944 0.019488 0.0194814 0.0194748 0.0194681 0.0194613 0.0194545 0.0194476 0.0194406 0.0194336 0.0194265 0.0194194 0.0194123 0.0194052 0.0193981 0.0193909 0.0193838 0.0193767 0.0193697 0.0193627 0.0193558 0.0193489 0.0193421 0.0193354 0.0193288 0.0193223 0.0193159 0.0193096 0.0193035 0.0192974 0.0192916 0.0192858 0.0192802 0.0192748 0.0192696 0.0192644 0.0192595 0.0192547 0.0192501 0.0192457 0.0192414 0.0192372 0.0192333 0.0192294 0.0192258 0.0192222 0.0192188 0.0192155 0.0192124 0.0192093 0.0192063 0.0192034 0.0192006 0.0191978 0.0191951 0.0191924 0.0191898 0.0191872 0.0191846 0.019182 0.0191795 0.019177 0.0191745 0.0191721 0.0191698 0.0191675 0.0191655 0.0191636 0.0191619 0.0191605 0.0191595 0.0191588 0.0191587 0.019159 0.01916 0.0191616 0.019164 0.0191673 0.0191715 0.0191768 0.0191831 0.0191907 0.0191995 0.0192097 0.0192213 0.0192345 0.0192492 0.0192656 0.0192836 0.0193034 0.0193249 0.0193482 0.0193733 0.0194001 0.0194286 0.0194588 0.0194907 0.0195241 0.0195592 0.0195959 0.0196341 0.0196738 0.019715 0.0197577 0.0198016 0.0198467 0.0198926 0.0199388 0.0199844 0.0200281 0.0200685 0.0201046 0.0201353 0.0201592 0.0201745 0.0201786 0.0201688 0.0201417 0.0200937 0.0200212 0.0199204 0.0197874 0.0196183 0.0194097 0.0191588 0.018864 0.0185261 0.0181499 0.0177443 0.0173234 0.0169076 0.0165111 0.0161326 0.0157357 0.0153007 0.0148294 0.0143437 0.0138272 0.0132252 0.0124894 0.0111933 0.00886061 0.00607414 0.00331647 0.000515828 -0.00245541 -0.00489392 -0.00733433 -0.0097181 -0.0120546 -0.0143997 -0.0170945 -0.0226521 0 0 0 0 0 0 0 0 0 0 0 0 0 0 0 0 0 0 0 0 0 0 0 0 0 0 0 0 0 0 0 0 0 0 0 0 0 0 0 0 0 0 0 0 0 0 0 0 0 0 0 0 0 0 0 0 0 0 0 0 0 0 0 0 0 0 0 0 0 0 0 0 0 0 0 0 0 0 0 0 0 0 0 0 0 0 0 0 0 -0.0128428 0 