# vtk DataFile Version 2.0
iteration 2052
ASCII

DATASET STRUCTURED_POINTS
DIMENSIONS 621 64 1
ORIGIN 0 0 0
SPACING 0.00161031 0.00161031 0.00161031

POINT_DATA 39744
SCALARS P float 1
LOOKUP_TABLE default
0 0 0 0 0 0 0 0 0 0 0 0 0 0 0 0 0 0 0 0 0 0 0 0 0 0 0 0 0 0 0 0 0 0 0 0 0 0 0 0 0 0 0 0 0 0 0 0 0 0 0 0 0 0 0 0 0 0 0 0 0 0 0 0 0 0 0 0 0 0 0 0 0 0 0 0 0 0 0 0 0 0 0 0 0 0 0 0 0 0 0 0 0 0 0 0 0 0 0 0 0 0 0 0 0 0 0 0 0 0 0 0 0 0 0 0 0 0 0 0 0 0 0 0 0 0 0 0 0 0 0 0 0 0 0 0 0 0 0 0 0 0 0 0 0 0 0 0 0 0 0 0 0 0 0 0 0 0 0 0 0 0 0 0 0 0 0 0 0 0 0 0 0 0 0 0 0 0 0 0 0 0 0 0 0 0 0 0 0 0 0 0 0 0 0 0 0 0 0 0 0 0 0 0 0 0 0 0 0 0 0 0 0 0 0 0 0 0 0 0 0 0 0 0 0 0 0 0 0 0 0 0 0 0 0 0 0 0 0 0 0 0 0 0 0 0 0 0 0 0 0 0 0 0 0 0 0 0 0 0 0 0 0 0 0 0 0 0 0 0 0 0 0 0 0 0 0 0 0 0 0 0 0 0 0 0 0 0 0 0 0 0 0 0 0 0 0 0 0 0 0 0 0 0 0 0 0 0 0 0 0 0 0 0 0 0 0 0 0 0 0 0 0 0 0 0 0 0 0 0 0 0 0 0 0 0 0 0 0 0 0 0 0 0 0 0 0 0 0 0 0 0 0 0 0 0 0 0 0 0 0 0 0 0 0 0 0 0 0 0 0 0 0 0 0 0 0 0 0 0 0 0 0 0 0 0 0 0 0 0 0 0 0 0 0 0 0 0 0 0 0 0 0 0 0 0 0 0 0 0 0 0 0 0 0 0 0 0 0 0 0 0 0 0 0 0 0 0 0 0 0 0 0 0 0 0 0 0 0 0 0 0 0 0 0 0 0 0 0 0 0 0 0 0 0 0 0 0 0 0 0 0 0 0 0 0 0 0 0 0 0 0 0 0 0 0 0 0 0 0 0 0 0 0 0 0 0 0 0 0 0 0 0 0 0 0 0 0 0 0 0 0 0 0 0 0 0 0 0 0 0 0 0 0 0 0 0 0 0 0 0 0 0 0 0 0 0 0 0 0 0 0 0 0 0 0 0 0 0 0 0 0 0 0 0 0 0 0 0 0 0 0 0 0 0 0 0 0 0 0 0 0 0 0 0 0 0 0 0 0 0 0 0 0 0 0 0 0 0 0 0 0 0 0 0 0 0 0 0 0 0 0 0 0 0 0 0 0 0 0 0 0 0 0 0 0 0 0 0 0 0 0 0 0 0 0 0 0 0 0 0 
0.02 0.02 0.02 0.02 0.02 0.02 0.02 0.02 0.02 0.02 0.02 0.02 0.02 0.02 0.02 0.02 0.02 0.02 0.02 0.02 0.02 0.02 0.02 0.02 0.02 0.02 0.02 0.02 0.02 0.02 0.02 0.02 0.02 0.02 0.02 0.02 0.02 0.02 0.02 0.02 0.02 0.02 0.02 0.02 0.02 0.02 0.02 0.02 0.02 0.02 0.02 0.02 0.02 0.02 0.02 0.02 0.02 0.02 0.02 0.02 0.02 0.02 0.02 0.02 0.02 0.02 0.02 0.02 0.02 0.02 0.02 0.02 0.02 0.02 0.02 0.02 0.02 0.02 0.02 0.02 0.02 0.02 0.02 0.02 0.02 0.02 0.02 0.02 0.02 0.02 0.02 0.02 0.02 0.02 0.02 0.02 0.02 0.02 0.02 0.02 0.02 0.02 0.02 0.02 0.02 0.02 0.02 0.02 0.02 0.02 0.02 0.02 0.02 0.02 0.02 0.02 0.02 0.02 0.02 0.02 0.02 0.02 0.02 0.02 0.02 0.02 0.02 0.02 0.02 0.02 0.02 0.02 0.02 0.02 0.02 0.02 0.02 0.02 0.02 0.02 0.02 0.02 0.02 0.02 0.02 0.02 0.02 0.02 0.02 0.02 0.02 0.02 0.02 0.02 0.02 0.02 0.02 0.02 0.02 0.02 0.02 0.02 0.02 0.02 0.02 0.02 0.02 0.02 0.02 0.02 0.02 0.02 0.0200001 0.0200001 0.0200001 0.0200001 0.0200001 0.0200001 0.0200001 0.0200001 0.0200001 0.0200001 0.0200001 0.0200001 0.0200001 0.0200002 0.0200002 0.0200002 0.0200002 0.0200002 0.0200003 0.0200003 0.0200003 0.0200003 0.0200004 0.0200004 0.0200004 0.0200005 0.0200005 0.0200006 0.0200006 0.0200007 0.0200007 0.0200008 0.0200009 0.020001 0.0200011 0.0200012 0.0200013 0.0200014 0.0200015 0.0200016 0.0200018 0.0200019 0.0200021 0.0200023 0.0200025 0.0200027 0.020003 0.0200032 0.0200035 0.0200038 0.0200041 0.0200045 0.0200048 0.0200052 0.0200056 0.0200061 0.0200066 0.0200071 0.0200076 0.0200082 0.0200088 0.0200095 0.0200102 0.0200109 0.0200117 0.0200125 0.0200134 0.0200143 0.0200152 0.0200162 0.0200173 0.0200184 0.0200196 0.0200208 0.0200221 0.0200234 0.0200248 0.0200263 0.0200278 0.0200294 0.020031 0.0200327 0.0200344 0.0200362 0.0200381 0.02004 0.020042 0.0200441 0.0200462 0.0200483 0.0200505 0.0200528 0.0200551 0.0200574 0.0200599 0.0200623 0.0200648 0.0200673 0.0200699 0.0200726 0.0200752 0.0200779 0.0200806 0.0200834 0.0200861 0.0200889 0.0200917 0.0200945 0.0200973 0.0201002 0.020103 0.0201058 0.0201086 0.0201114 0.0201142 0.0201169 0.0201197 0.0201224 0.020125 0.0201276 0.0201302 0.0201327 0.0201352 0.0201377 0.02014 0.0201424 0.0201446 0.0201468 0.0201489 0.0201509 0.0201529 0.0201548 0.0201566 0.0201583 0.0201599 0.0201614 0.0201629 0.0201642 0.0201655 0.0201667 0.0201677 0.0201687 0.0201696 0.0201704 0.0201711 0.0201718 0.0201723 0.0201728 0.0201731 0.0201734 0.0201736 0.0201738 0.0201739 0.0201739 0.0201739 0.0201738 0.0201736 0.0201734 0.0201732 0.020173 0.0201727 0.0201724 0.0201721 0.0201718 0.0201715 0.0201712 0.0201709 0.0201707 0.0201704 0.0201702 0.02017 0.0201699 0.0201698 0.0201698 0.0201699 0.02017 0.0201701 0.0201704 0.0201707 0.0201711 0.0201716 0.0201721 0.0201728 0.0201735 0.0201743 0.0201752 0.0201762 0.0201773 0.0201785 0.0201797 0.020181 0.0201825 0.020184 0.0201855 0.0201872 0.0201889 0.0201906 0.0201925 0.0201943 0.0201963 0.0201983 0.0202003 0.0202024 0.0202045 0.0202067 0.0202088 0.0202111 0.0202133 0.0202155 0.0202178 0.0202201 0.0202224 0.0202246 0.0202269 0.0202292 0.0202315 0.0202338 0.0202361 0.0202384 0.0202407 0.0202429 0.0202452 0.0202474 0.0202496 0.0202518 0.020254 0.0202562 0.0202583 0.0202605 0.0202626 0.0202646 0.0202667 0.0202687 0.0202707 0.0202727 0.0202746 0.0202766 0.0202784 0.0202803 0.0202821 0.0202839 0.0202857 0.0202875 0.0202892 0.020291 0.0202928 0.0202947 0.0202967 0.0202987 0.0203009 0.0203033 0.0203061 0.0203092 0.0203125 0.0203164 0.0203208 0.0203256 0.0203308 0.0203365 0.0203428 0.0203496 0.0203569 0.0203648 0.0203729 0.0203817 0.0203912 0.0204012 0.0204117 0.020423 0.0204351 0.020448 0.020462 0.0204771 0.0204935 0.0205115 0.0205311 0.0205525 0.0205761 0.0206019 0.0206301 0.0206609 0.0206943 0.0207306 0.0207696 0.0208115 0.0208561 0.0209033 0.0209528 0.0210044 0.0210574 0.0211114 0.0211654 0.0212185 0.0212694 0.0213167 0.0213585 0.0213928 0.0214172 0.0214289 0.0214249 0.0214017 0.0213555 0.021282 0.0211771 0.0210363 0.0208553 0.0206303 0.0203579 0.0200358 0.0196622 0.0192368 0.01876 0.0182329 0.0176567 0.017033 0.0163636 0.0156439 0.0148937 0.0141551 0.0133773 0.0132156 0.0146138 0 0 0 0 0 0 0 0 0 0 0 0 0 0 0 0 0 0 0 0 0 0 0 0 0 0 0 0 0 0 0 0 0 0 0 0 0 0 0 0 0 0 0 0 0 0 0 0 0 0 0 0 0 0 0 0 0 0 0 0 0 0 0 0 0 0 0 0 0 0 0 0 0 0 0 0 0 0 0 0 0 0 0 0 0 0 0 0 0 0 0 0 0 0 0 0 0 0 0 0 0 0 0 0 0 0 0 0 0 0 0 0 0 0 0 0 0 0 0 0 0 0 0 0 0 0 0 
0.02 0.02 0.02 0.02 0.02 0.02 0.02 0.02 0.02 0.02 0.02 0.02 0.02 0.02 0.02 0.02 0.02 0.02 0.02 0.02 0.02 0.02 0.02 0.02 0.02 0.02 0.02 0.02 0.02 0.02 0.02 0.02 0.02 0.02 0.02 0.02 0.02 0.02 0.02 0.02 0.02 0.02 0.02 0.02 0.02 0.02 0.02 0.02 0.02 0.02 0.02 0.02 0.02 0.02 0.02 0.02 0.02 0.02 0.02 0.02 0.02 0.02 0.02 0.02 0.02 0.02 0.02 0.02 0.02 0.02 0.02 0.02 0.02 0.02 0.02 0.02 0.02 0.02 0.02 0.02 0.02 0.02 0.02 0.02 0.02 0.02 0.02 0.02 0.02 0.02 0.02 0.02 0.02 0.02 0.02 0.02 0.02 0.02 0.02 0.02 0.02 0.02 0.02 0.02 0.02 0.02 0.02 0.02 0.02 0.02 0.02 0.02 0.02 0.02 0.02 0.02 0.02 0.02 0.02 0.02 0.02 0.02 0.02 0.02 0.02 0.02 0.02 0.02 0.02 0.02 0.02 0.02 0.02 0.02 0.02 0.02 0.02 0.02 0.02 0.02 0.02 0.02 0.02 0.02 0.02 0.02 0.02 0.02 0.02 0.02 0.02 0.02 0.02 0.02 0.02 0.02 0.02 0.02 0.02 0.02 0.02 0.02 0.02 0.02 0.02 0.02 0.02 0.02 0.02 0.02 0.02 0.02 0.02 0.0200001 0.0200001 0.0200001 0.0200001 0.0200001 0.0200001 0.0200001 0.0200001 0.0200001 0.0200001 0.0200001 0.0200001 0.0200002 0.0200002 0.0200002 0.0200002 0.0200002 0.0200002 0.0200003 0.0200003 0.0200003 0.0200004 0.0200004 0.0200004 0.0200005 0.0200005 0.0200006 0.0200006 0.0200007 0.0200007 0.0200008 0.0200009 0.020001 0.020001 0.0200011 0.0200012 0.0200014 0.0200015 0.0200016 0.0200018 0.0200019 0.0200021 0.0200023 0.0200025 0.0200027 0.0200029 0.0200032 0.0200035 0.0200038 0.0200041 0.0200044 0.0200048 0.0200052 0.0200056 0.020006 0.0200065 0.020007 0.0200075 0.0200081 0.0200087 0.0200094 0.0200101 0.0200108 0.0200116 0.0200124 0.0200133 0.0200142 0.0200151 0.0200161 0.0200172 0.0200183 0.0200195 0.0200207 0.020022 0.0200233 0.0200247 0.0200261 0.0200276 0.0200292 0.0200308 0.0200325 0.0200343 0.0200361 0.0200379 0.0200398 0.0200418 0.0200439 0.0200459 0.0200481 0.0200503 0.0200525 0.0200549 0.0200572 0.0200596 0.0200621 0.0200646 0.0200671 0.0200697 0.0200723 0.020075 0.0200777 0.0200804 0.0200831 0.0200859 0.0200887 0.0200915 0.0200943 0.0200971 0.0200999 0.0201027 0.0201056 0.0201084 0.0201111 0.0201139 0.0201167 0.0201194 0.0201221 0.0201247 0.0201274 0.02013 0.0201325 0.020135 0.0201374 0.0201398 0.0201421 0.0201444 0.0201466 0.0201487 0.0201507 0.0201527 0.0201546 0.0201564 0.0201581 0.0201597 0.0201613 0.0201627 0.0201641 0.0201653 0.0201665 0.0201676 0.0201686 0.0201695 0.0201703 0.020171 0.0201716 0.0201721 0.0201726 0.0201729 0.0201732 0.0201735 0.0201736 0.0201737 0.0201737 0.0201736 0.0201735 0.0201734 0.0201732 0.020173 0.0201727 0.0201724 0.0201721 0.0201718 0.0201715 0.0201711 0.0201708 0.0201705 0.0201702 0.02017 0.0201697 0.0201695 0.0201694 0.0201693 0.0201692 0.0201692 0.0201693 0.0201695 0.0201697 0.0201699 0.0201703 0.0201708 0.0201713 0.0201719 0.0201726 0.0201734 0.0201742 0.0201752 0.0201763 0.0201774 0.0201786 0.0201799 0.0201813 0.0201827 0.0201843 0.0201859 0.0201875 0.0201893 0.0201911 0.0201929 0.0201948 0.0201968 0.0201988 0.0202009 0.0202029 0.0202051 0.0202072 0.0202094 0.0202116 0.0202139 0.0202161 0.0202184 0.0202206 0.0202229 0.0202252 0.0202275 0.0202298 0.0202321 0.0202344 0.0202367 0.0202389 0.0202412 0.0202434 0.0202457 0.0202479 0.0202501 0.0202523 0.0202545 0.0202567 0.0202588 0.0202609 0.020263 0.0202651 0.0202671 0.0202691 0.0202711 0.020273 0.0202749 0.0202768 0.0202786 0.0202804 0.0202821 0.0202839 0.0202856 0.0202873 0.020289 0.0202908 0.0202926 0.0202945 0.0202966 0.0202989 0.0203014 0.0203043 0.0203075 0.0203109 0.0203147 0.020319 0.0203237 0.0203289 0.0203345 0.0203406 0.0203472 0.0203544 0.0203622 0.0203703 0.0203791 0.0203886 0.0203986 0.0204092 0.0204203 0.0204322 0.0204449 0.0204585 0.0204732 0.0204891 0.0205065 0.0205255 0.0205464 0.0205692 0.0205943 0.0206218 0.0206518 0.0206845 0.0207199 0.0207581 0.020799 0.0208427 0.0208889 0.0209374 0.020988 0.02104 0.0210929 0.0211459 0.0211979 0.0212478 0.0212942 0.0213351 0.0213687 0.0213925 0.0214038 0.0213996 0.0213764 0.0213305 0.0212577 0.0211538 0.0210144 0.0208353 0.0206126 0.020343 0.020024 0.019654 0.0192325 0.0187598 0.0182372 0.0176658 0.0170476 0.0163854 0.0156778 0.0149467 0.014247 0.0134444 0.012897 0.0128125 0.0117386 0.0105199 0.00935747 0.00820916 0.00694156 0.00578961 0.00545124 0 0 0 0 0 0 0 0 0 0 0 0 0 0 0 0 0 0 0 0 0 0 0 0 0 0 0 0 0 0 0 0 0 0 0 0 0 0 0 0 0 0 0 0 0 0 0 0 0 0 0 0 0 0 0 0 0 0 0 0 0 0 0 0 0 0 0 0 0 0 0 0 0 0 0 0 0 0 0 0 0 0 0 0 0 0 0 0 0 0 0 0 0 0 0 0 0 0 0 0 0 0 0 0 0 0 0 0 0 0 0 0 0 0 0 0 0 0 0 0 
0.02 0.02 0.02 0.02 0.02 0.02 0.02 0.02 0.02 0.02 0.02 0.02 0.02 0.02 0.02 0.02 0.02 0.02 0.02 0.02 0.02 0.02 0.02 0.02 0.02 0.02 0.02 0.02 0.02 0.02 0.02 0.02 0.02 0.02 0.02 0.02 0.02 0.02 0.02 0.02 0.02 0.02 0.02 0.02 0.02 0.02 0.02 0.02 0.02 0.02 0.02 0.02 0.02 0.02 0.02 0.02 0.02 0.02 0.02 0.02 0.02 0.02 0.02 0.02 0.02 0.02 0.02 0.02 0.02 0.02 0.02 0.02 0.02 0.02 0.02 0.02 0.02 0.02 0.02 0.02 0.02 0.02 0.02 0.02 0.02 0.02 0.02 0.02 0.02 0.02 0.02 0.02 0.02 0.02 0.02 0.02 0.02 0.02 0.02 0.02 0.02 0.02 0.02 0.02 0.02 0.02 0.02 0.02 0.02 0.02 0.02 0.02 0.02 0.02 0.02 0.02 0.02 0.02 0.02 0.02 0.02 0.02 0.02 0.02 0.02 0.02 0.02 0.02 0.02 0.02 0.02 0.02 0.02 0.02 0.02 0.02 0.02 0.02 0.02 0.02 0.02 0.02 0.02 0.02 0.02 0.02 0.02 0.02 0.02 0.02 0.02 0.02 0.02 0.02 0.02 0.02 0.02 0.02 0.02 0.02 0.02 0.02 0.02 0.02 0.02 0.02 0.02 0.02 0.02 0.02 0.02 0.02 0.02 0.0200001 0.0200001 0.0200001 0.0200001 0.0200001 0.0200001 0.0200001 0.0200001 0.0200001 0.0200001 0.0200001 0.0200001 0.0200002 0.0200002 0.0200002 0.0200002 0.0200002 0.0200002 0.0200003 0.0200003 0.0200003 0.0200003 0.0200004 0.0200004 0.0200005 0.0200005 0.0200005 0.0200006 0.0200007 0.0200007 0.0200008 0.0200009 0.0200009 0.020001 0.0200011 0.0200012 0.0200013 0.0200015 0.0200016 0.0200017 0.0200019 0.0200021 0.0200022 0.0200024 0.0200027 0.0200029 0.0200031 0.0200034 0.0200037 0.020004 0.0200044 0.0200047 0.0200051 0.0200055 0.020006 0.0200064 0.0200069 0.0200075 0.020008 0.0200086 0.0200093 0.02001 0.0200107 0.0200115 0.0200123 0.0200131 0.020014 0.020015 0.020016 0.020017 0.0200181 0.0200193 0.0200205 0.0200218 0.0200231 0.0200245 0.0200259 0.0200274 0.020029 0.0200306 0.0200323 0.020034 0.0200358 0.0200377 0.0200396 0.0200416 0.0200436 0.0200457 0.0200478 0.02005 0.0200523 0.0200546 0.0200569 0.0200593 0.0200617 0.0200642 0.0200668 0.0200693 0.020072 0.0200746 0.0200773 0.02008 0.0200828 0.0200855 0.0200883 0.0200911 0.0200939 0.0200967 0.0200995 0.0201023 0.0201051 0.0201079 0.0201107 0.0201135 0.0201162 0.020119 0.0201217 0.0201243 0.0201269 0.0201295 0.0201321 0.0201345 0.020137 0.0201394 0.0201417 0.0201439 0.0201461 0.0201482 0.0201502 0.0201522 0.0201541 0.0201559 0.0201576 0.0201592 0.0201608 0.0201622 0.0201635 0.0201648 0.020166 0.020167 0.020168 0.0201689 0.0201697 0.0201704 0.020171 0.0201715 0.020172 0.0201723 0.0201726 0.0201728 0.0201729 0.020173 0.0201729 0.0201729 0.0201727 0.0201726 0.0201723 0.0201721 0.0201718 0.0201715 0.0201711 0.0201708 0.0201704 0.02017 0.0201696 0.0201693 0.020169 0.0201686 0.0201684 0.0201681 0.0201679 0.0201677 0.0201676 0.0201676 0.0201676 0.0201676 0.0201678 0.020168 0.0201683 0.0201686 0.0201691 0.0201696 0.0201703 0.020171 0.0201718 0.0201726 0.0201736 0.0201746 0.0201758 0.020177 0.0201783 0.0201796 0.0201811 0.0201826 0.0201842 0.0201859 0.0201876 0.0201894 0.0201912 0.0201931 0.020195 0.020197 0.0201991 0.0202011 0.0202032 0.0202054 0.0202075 0.0202097 0.0202119 0.0202141 0.0202164 0.0202186 0.0202209 0.0202232 0.0202254 0.0202277 0.02023 0.0202323 0.0202346 0.0202368 0.0202391 0.0202414 0.0202436 0.0202458 0.0202481 0.0202503 0.0202525 0.0202546 0.0202568 0.0202589 0.0202609 0.020263 0.020265 0.020267 0.0202689 0.0202708 0.0202726 0.0202744 0.0202762 0.0202779 0.0202796 0.0202813 0.020283 0.0202848 0.0202866 0.0202885 0.0202906 0.0202928 0.0202952 0.0202979 0.0203009 0.0203042 0.0203077 0.0203116 0.0203158 0.0203204 0.0203254 0.0203309 0.0203368 0.0203432 0.0203502 0.0203578 0.020366 0.0203748 0.0203843 0.0203943 0.0204048 0.0204161 0.020428 0.0204405 0.0204538 0.0204681 0.0204834 0.0205001 0.0205184 0.0205383 0.0205602 0.0205843 0.0206108 0.0206397 0.0206712 0.0207054 0.0207423 0.020782 0.0208243 0.0208691 0.0209161 0.0209651 0.0210155 0.0210667 0.0211179 0.0211682 0.0212164 0.0212609 0.0213001 0.021332 0.0213542 0.021364 0.0213585 0.0213342 0.0212873 0.0212139 0.0211096 0.0209702 0.0207914 0.0205695 0.0203012 0.0199839 0.0196162 0.0191974 0.018728 0.0182094 0.017643 0.0170319 0.0163831 0.0156996 0.0149986 0.0143576 0.0136807 0.0129207 0.0124261 0.0114687 0.0104332 0.00929429 0.008146 0.00692705 0.00578233 0.00477956 0.00349547 0.00208275 0.000734033 -0.00113773 0 0 0 0 0 0 0 0 0 0 0 0 0 0 0 0 0 0 0 0 0 0 0 0 0 0 0 0 0 0 0 0 0 0 0 0 0 0 0 0 0 0 0 0 0 0 0 0 0 0 0 0 0 0 0 0 0 0 0 0 0 0 0 0 0 0 0 0 0 0 0 0 0 0 0 0 0 0 0 0 0 0 0 0 0 0 0 0 0 0 0 0 0 0 0 0 0 0 0 0 0 0 0 0 0 0 0 0 0 0 0 0 0 0 0 0 
0.02 0.02 0.02 0.02 0.02 0.02 0.02 0.02 0.02 0.02 0.02 0.02 0.02 0.02 0.02 0.02 0.02 0.02 0.02 0.02 0.02 0.02 0.02 0.02 0.02 0.02 0.02 0.02 0.02 0.02 0.02 0.02 0.02 0.02 0.02 0.02 0.02 0.02 0.02 0.02 0.02 0.02 0.02 0.02 0.02 0.02 0.02 0.02 0.02 0.02 0.02 0.02 0.02 0.02 0.02 0.02 0.02 0.02 0.02 0.02 0.02 0.02 0.02 0.02 0.02 0.02 0.02 0.02 0.02 0.02 0.02 0.02 0.02 0.02 0.02 0.02 0.02 0.02 0.02 0.02 0.02 0.02 0.02 0.02 0.02 0.02 0.02 0.02 0.02 0.02 0.02 0.02 0.02 0.02 0.02 0.02 0.02 0.02 0.02 0.02 0.02 0.02 0.02 0.02 0.02 0.02 0.02 0.02 0.02 0.02 0.02 0.02 0.02 0.02 0.02 0.02 0.02 0.02 0.02 0.02 0.02 0.02 0.02 0.02 0.02 0.02 0.02 0.02 0.02 0.02 0.02 0.02 0.02 0.02 0.02 0.02 0.02 0.02 0.02 0.02 0.02 0.02 0.02 0.02 0.02 0.02 0.02 0.02 0.02 0.02 0.02 0.02 0.02 0.02 0.02 0.02 0.02 0.02 0.02 0.02 0.02 0.02 0.02 0.02 0.02 0.02 0.02 0.02 0.02 0.02 0.02 0.02 0.02 0.02 0.0200001 0.0200001 0.0200001 0.0200001 0.0200001 0.0200001 0.0200001 0.0200001 0.0200001 0.0200001 0.0200001 0.0200001 0.0200002 0.0200002 0.0200002 0.0200002 0.0200002 0.0200003 0.0200003 0.0200003 0.0200003 0.0200004 0.0200004 0.0200004 0.0200005 0.0200005 0.0200006 0.0200006 0.0200007 0.0200008 0.0200008 0.0200009 0.020001 0.0200011 0.0200012 0.0200013 0.0200014 0.0200016 0.0200017 0.0200019 0.020002 0.0200022 0.0200024 0.0200026 0.0200028 0.0200031 0.0200033 0.0200036 0.0200039 0.0200043 0.0200046 0.020005 0.0200054 0.0200059 0.0200063 0.0200068 0.0200073 0.0200079 0.0200085 0.0200092 0.0200098 0.0200105 0.0200113 0.0200121 0.020013 0.0200139 0.0200148 0.0200158 0.0200168 0.0200179 0.0200191 0.0200203 0.0200215 0.0200229 0.0200242 0.0200257 0.0200271 0.0200287 0.0200303 0.020032 0.0200337 0.0200355 0.0200373 0.0200392 0.0200412 0.0200432 0.0200453 0.0200474 0.0200496 0.0200518 0.0200541 0.0200564 0.0200588 0.0200613 0.0200637 0.0200663 0.0200688 0.0200714 0.0200741 0.0200768 0.0200795 0.0200822 0.0200849 0.0200877 0.0200905 0.0200933 0.0200961 0.0200989 0.0201017 0.0201045 0.0201073 0.02011 0.0201128 0.0201155 0.0201182 0.0201209 0.0201236 0.0201262 0.0201287 0.0201313 0.0201337 0.0201362 0.0201385 0.0201408 0.0201431 0.0201452 0.0201473 0.0201494 0.0201513 0.0201532 0.0201549 0.0201566 0.0201582 0.0201598 0.0201612 0.0201625 0.0201638 0.0201649 0.020166 0.0201669 0.0201678 0.0201686 0.0201692 0.0201698 0.0201703 0.0201707 0.020171 0.0201713 0.0201714 0.0201715 0.0201716 0.0201715 0.0201714 0.0201712 0.020171 0.0201707 0.0201704 0.02017 0.0201697 0.0201693 0.0201688 0.0201684 0.020168 0.0201675 0.0201671 0.0201667 0.0201663 0.0201659 0.0201656 0.0201653 0.020165 0.0201648 0.0201647 0.0201646 0.0201646 0.0201646 0.0201647 0.0201649 0.0201651 0.0201655 0.0201659 0.0201664 0.020167 0.0201677 0.0201684 0.0201693 0.0201702 0.0201712 0.0201723 0.0201735 0.0201747 0.0201761 0.0201775 0.0201789 0.0201805 0.0201821 0.0201838 0.0201855 0.0201873 0.0201891 0.020191 0.020193 0.0201949 0.0201969 0.020199 0.0202011 0.0202032 0.0202054 0.0202075 0.0202097 0.0202119 0.0202142 0.0202164 0.0202187 0.0202209 0.0202232 0.0202255 0.0202278 0.02023 0.0202323 0.0202346 0.0202369 0.0202391 0.0202414 0.0202436 0.0202458 0.020248 0.0202502 0.0202524 0.0202545 0.0202566 0.0202586 0.0202606 0.0202625 0.0202645 0.0202663 0.0202682 0.02027 0.0202718 0.0202736 0.0202754 0.0202772 0.0202791 0.0202811 0.0202833 0.0202855 0.0202879 0.0202906 0.0202935 0.0202965 0.0202998 0.0203033 0.0203072 0.0203113 0.0203158 0.0203207 0.020326 0.0203317 0.020338 0.0203447 0.020352 0.0203599 0.0203684 0.0203776 0.0203875 0.020398 0.0204092 0.020421 0.0204335 0.0204466 0.0204605 0.0204753 0.0204913 0.0205086 0.0205275 0.0205482 0.0205709 0.0205959 0.0206232 0.0206531 0.0206856 0.0207207 0.0207584 0.0207987 0.0208413 0.0208861 0.0209328 0.0209807 0.0210294 0.0210781 0.0211257 0.0211712 0.021213 0.0212496 0.0212788 0.0212985 0.021306 0.0212983 0.021272 0.0212235 0.0211489 0.0210438 0.020904 0.0207255 0.0205044 0.0202375 0.0199224 0.0195576 0.0191427 0.0186782 0.0181662 0.0176097 0.0170129 0.0163868 0.0157386 0.0150763 0.0144348 0.0138085 0.0131536 0.0123213 0.0113636 0.0103606 0.00926432 0.00813053 0.006946 0.00579643 0.00464518 0.00336557 0.00198953 0.000517331 -0.00125394 -0.00353472 -0.00577348 0 0 0 0 0 0 0 0 0 0 0 0 0 0 0 0 0 0 0 0 0 0 0 0 0 0 0 0 0 0 0 0 0 0 0 0 0 0 0 0 0 0 0 0 0 0 0 0 0 0 0 0 0 0 0 0 0 0 0 0 0 0 0 0 0 0 0 0 0 0 0 0 0 0 0 0 0 0 0 0 0 0 0 0 0 0 0 0 0 0 0 0 0 0 0 0 0 0 0 0 0 0 0 0 0 0 0 0 0 0 0 0 0 -1.73472e-18 
0.02 0.02 0.02 0.02 0.02 0.02 0.02 0.02 0.02 0.02 0.02 0.02 0.02 0.02 0.02 0.02 0.02 0.02 0.02 0.02 0.02 0.02 0.02 0.02 0.02 0.02 0.02 0.02 0.02 0.02 0.02 0.02 0.02 0.02 0.02 0.02 0.02 0.02 0.02 0.02 0.02 0.02 0.02 0.02 0.02 0.02 0.02 0.02 0.02 0.02 0.02 0.02 0.02 0.02 0.02 0.02 0.02 0.02 0.02 0.02 0.02 0.02 0.02 0.02 0.02 0.02 0.02 0.02 0.02 0.02 0.02 0.02 0.02 0.02 0.02 0.02 0.02 0.02 0.02 0.02 0.02 0.02 0.02 0.02 0.02 0.02 0.02 0.02 0.02 0.02 0.02 0.02 0.02 0.02 0.02 0.02 0.02 0.02 0.02 0.02 0.02 0.02 0.02 0.02 0.02 0.02 0.02 0.02 0.02 0.02 0.02 0.02 0.02 0.02 0.02 0.02 0.02 0.02 0.02 0.02 0.02 0.02 0.02 0.02 0.02 0.02 0.02 0.02 0.02 0.02 0.02 0.02 0.02 0.02 0.02 0.02 0.02 0.02 0.02 0.02 0.02 0.02 0.02 0.02 0.02 0.02 0.02 0.02 0.02 0.02 0.02 0.02 0.02 0.02 0.02 0.02 0.02 0.02 0.02 0.02 0.02 0.02 0.02 0.02 0.02 0.02 0.02 0.02 0.02 0.02 0.02 0.02 0.02 0.02 0.0200001 0.0200001 0.0200001 0.0200001 0.0200001 0.0200001 0.0200001 0.0200001 0.0200001 0.0200001 0.0200001 0.0200001 0.0200002 0.0200002 0.0200002 0.0200002 0.0200002 0.0200002 0.0200003 0.0200003 0.0200003 0.0200003 0.0200004 0.0200004 0.0200005 0.0200005 0.0200006 0.0200006 0.0200007 0.0200007 0.0200008 0.0200009 0.020001 0.0200011 0.0200012 0.0200013 0.0200014 0.0200015 0.0200016 0.0200018 0.020002 0.0200021 0.0200023 0.0200025 0.0200028 0.020003 0.0200033 0.0200035 0.0200038 0.0200042 0.0200045 0.0200049 0.0200053 0.0200057 0.0200062 0.0200067 0.0200072 0.0200078 0.0200083 0.020009 0.0200096 0.0200104 0.0200111 0.0200119 0.0200127 0.0200136 0.0200146 0.0200155 0.0200166 0.0200176 0.0200188 0.02002 0.0200212 0.0200225 0.0200239 0.0200253 0.0200268 0.0200283 0.0200299 0.0200315 0.0200332 0.020035 0.0200368 0.0200387 0.0200407 0.0200427 0.0200447 0.0200468 0.020049 0.0200512 0.0200535 0.0200558 0.0200582 0.0200606 0.0200631 0.0200656 0.0200681 0.0200707 0.0200733 0.020076 0.0200787 0.0200814 0.0200841 0.0200869 0.0200896 0.0200924 0.0200952 0.020098 0.0201007 0.0201035 0.0201063 0.020109 0.0201118 0.0201145 0.0201172 0.0201198 0.0201224 0.020125 0.0201276 0.0201301 0.0201325 0.0201349 0.0201373 0.0201396 0.0201418 0.0201439 0.020146 0.020148 0.0201499 0.0201517 0.0201535 0.0201552 0.0201568 0.0201582 0.0201596 0.020161 0.0201622 0.0201633 0.0201643 0.0201652 0.0201661 0.0201668 0.0201674 0.020168 0.0201684 0.0201688 0.0201691 0.0201693 0.0201694 0.0201694 0.0201694 0.0201693 0.0201691 0.0201689 0.0201686 0.0201683 0.0201679 0.0201674 0.020167 0.0201665 0.020166 0.0201655 0.020165 0.0201644 0.0201639 0.0201634 0.0201629 0.0201624 0.020162 0.0201616 0.0201612 0.0201609 0.0201606 0.0201604 0.0201602 0.0201601 0.0201601 0.0201601 0.0201602 0.0201604 0.0201607 0.0201611 0.0201615 0.020162 0.0201626 0.0201633 0.0201641 0.020165 0.0201659 0.0201669 0.020168 0.0201692 0.0201704 0.0201718 0.0201732 0.0201746 0.0201761 0.0201777 0.0201794 0.0201811 0.0201829 0.0201847 0.0201866 0.0201885 0.0201904 0.0201924 0.0201944 0.0201965 0.0201986 0.0202007 0.0202029 0.0202051 0.0202073 0.0202095 0.0202117 0.020214 0.0202163 0.0202186 0.0202209 0.0202232 0.0202255 0.0202278 0.0202301 0.0202324 0.0202346 0.0202369 0.0202392 0.0202414 0.0202436 0.0202458 0.0202479 0.0202501 0.0202522 0.0202542 0.0202562 0.0202582 0.0202602 0.0202622 0.0202641 0.0202661 0.0202682 0.0202703 0.0202724 0.0202747 0.0202771 0.0202796 0.0202822 0.0202849 0.0202879 0.0202909 0.0202942 0.0202978 0.0203016 0.0203056 0.0203101 0.0203148 0.02032 0.0203255 0.0203315 0.020338 0.020345 0.0203525 0.0203606 0.0203693 0.0203786 0.0203887 0.0203995 0.0204111 0.0204233 0.0204362 0.0204497 0.0204641 0.0204793 0.0204957 0.0205134 0.0205327 0.0205538 0.020577 0.0206023 0.0206301 0.0206602 0.0206929 0.0207281 0.0207656 0.0208055 0.0208473 0.0208908 0.0209354 0.0209807 0.0210259 0.02107 0.0211118 0.0211501 0.021183 0.0212088 0.0212252 0.0212295 0.021219 0.0211903 0.0211397 0.0210635 0.0209574 0.0208174 0.0206393 0.0204195 0.0201548 0.0198429 0.0194825 0.0190734 0.0186166 0.0181152 0.0175737 0.0169982 0.0163987 0.0157875 0.0151622 0.0145181 0.0138611 0.0131265 0.0122911 0.0113526 0.010343 0.00926337 0.0081481 0.00698477 0.00580927 0.00459298 0.0032917 0.00189293 0.00036318 -0.00129271 -0.003433 -0.00600927 -0.00990716 -0.0138198 0 0 0 0 0 0 0 0 0 0 0 0 0 0 0 0 0 0 0 0 0 0 0 0 0 0 0 0 0 0 0 0 0 0 0 0 0 0 0 0 0 0 0 0 0 0 0 0 0 0 0 0 0 0 0 0 0 0 0 0 0 0 0 0 0 0 0 0 0 0 0 0 0 0 0 0 0 0 0 0 0 0 0 0 0 0 0 0 0 0 0 0 0 0 0 0 0 0 0 0 0 0 0 0 0 0 0 0 0 0 0 -2.60209e-18 
0.02 0.02 0.02 0.02 0.02 0.02 0.02 0.02 0.02 0.02 0.02 0.02 0.02 0.02 0.02 0.02 0.02 0.02 0.02 0.02 0.02 0.02 0.02 0.02 0.02 0.02 0.02 0.02 0.02 0.02 0.02 0.02 0.02 0.02 0.02 0.02 0.02 0.02 0.02 0.02 0.02 0.02 0.02 0.02 0.02 0.02 0.02 0.02 0.02 0.02 0.02 0.02 0.02 0.02 0.02 0.02 0.02 0.02 0.02 0.02 0.02 0.02 0.02 0.02 0.02 0.02 0.02 0.02 0.02 0.02 0.02 0.02 0.02 0.02 0.02 0.02 0.02 0.02 0.02 0.02 0.02 0.02 0.02 0.02 0.02 0.02 0.02 0.02 0.02 0.02 0.02 0.02 0.02 0.02 0.02 0.02 0.02 0.02 0.02 0.02 0.02 0.02 0.02 0.02 0.02 0.02 0.02 0.02 0.02 0.02 0.02 0.02 0.02 0.02 0.02 0.02 0.02 0.02 0.02 0.02 0.02 0.02 0.02 0.02 0.02 0.02 0.02 0.02 0.02 0.02 0.02 0.02 0.02 0.02 0.02 0.02 0.02 0.02 0.02 0.02 0.02 0.02 0.02 0.02 0.02 0.02 0.02 0.02 0.02 0.02 0.02 0.02 0.02 0.02 0.02 0.02 0.02 0.02 0.02 0.02 0.02 0.02 0.02 0.02 0.02 0.02 0.02 0.02 0.02 0.02 0.02 0.02 0.02 0.02 0.02 0.0200001 0.0200001 0.0200001 0.0200001 0.0200001 0.0200001 0.0200001 0.0200001 0.0200001 0.0200001 0.0200001 0.0200001 0.0200002 0.0200002 0.0200002 0.0200002 0.0200002 0.0200002 0.0200003 0.0200003 0.0200003 0.0200004 0.0200004 0.0200004 0.0200005 0.0200005 0.0200006 0.0200006 0.0200007 0.0200008 0.0200008 0.0200009 0.020001 0.0200011 0.0200012 0.0200013 0.0200014 0.0200016 0.0200017 0.0200019 0.0200021 0.0200022 0.0200025 0.0200027 0.0200029 0.0200032 0.0200034 0.0200037 0.0200041 0.0200044 0.0200048 0.0200052 0.0200056 0.020006 0.0200065 0.020007 0.0200076 0.0200081 0.0200088 0.0200094 0.0200101 0.0200109 0.0200116 0.0200125 0.0200133 0.0200143 0.0200152 0.0200162 0.0200173 0.0200184 0.0200196 0.0200208 0.0200221 0.0200234 0.0200248 0.0200263 0.0200278 0.0200294 0.020031 0.0200327 0.0200344 0.0200363 0.0200381 0.02004 0.020042 0.0200441 0.0200462 0.0200483 0.0200505 0.0200527 0.0200551 0.0200574 0.0200598 0.0200622 0.0200647 0.0200672 0.0200698 0.0200724 0.020075 0.0200777 0.0200804 0.0200831 0.0200858 0.0200885 0.0200913 0.020094 0.0200968 0.0200995 0.0201022 0.020105 0.0201077 0.0201104 0.0201131 0.0201157 0.0201184 0.020121 0.0201235 0.020126 0.0201285 0.0201309 0.0201333 0.0201356 0.0201379 0.02014 0.0201421 0.0201442 0.0201461 0.020148 0.0201498 0.0201516 0.0201532 0.0201547 0.0201562 0.0201575 0.0201588 0.02016 0.0201611 0.020162 0.0201629 0.0201637 0.0201644 0.020165 0.0201655 0.0201659 0.0201662 0.0201664 0.0201666 0.0201666 0.0201666 0.0201665 0.0201663 0.0201661 0.0201658 0.0201654 0.020165 0.0201645 0.020164 0.0201634 0.0201629 0.0201622 0.0201616 0.020161 0.0201603 0.0201597 0.0201591 0.0201584 0.0201578 0.0201572 0.0201567 0.0201562 0.0201557 0.0201553 0.0201549 0.0201546 0.0201543 0.0201541 0.020154 0.020154 0.020154 0.0201541 0.0201543 0.0201545 0.0201548 0.0201553 0.0201558 0.0201563 0.020157 0.0201578 0.0201586 0.0201595 0.0201605 0.0201616 0.0201627 0.0201639 0.0201652 0.0201666 0.020168 0.0201695 0.020171 0.0201726 0.0201743 0.020176 0.0201778 0.0201797 0.0201815 0.0201835 0.0201854 0.0201875 0.0201895 0.0201916 0.0201937 0.0201959 0.0201981 0.0202003 0.0202025 0.0202048 0.0202071 0.0202094 0.0202117 0.0202141 0.0202164 0.0202188 0.0202211 0.0202235 0.0202258 0.0202282 0.0202305 0.0202329 0.0202352 0.0202375 0.0202397 0.020242 0.0202442 0.0202464 0.0202487 0.0202509 0.0202531 0.0202554 0.0202577 0.02026 0.0202624 0.0202648 0.0202673 0.0202699 0.0202725 0.0202753 0.0202781 0.0202811 0.0202843 0.0202876 0.0202911 0.0202949 0.0202989 0.0203032 0.0203079 0.0203129 0.0203182 0.0203239 0.0203301 0.0203367 0.0203438 0.0203514 0.0203596 0.0203683 0.0203777 0.0203878 0.0203986 0.0204102 0.0204225 0.0204356 0.0204493 0.0204639 0.0204793 0.0204958 0.0205136 0.0205329 0.020554 0.0205771 0.0206023 0.0206297 0.0206594 0.0206915 0.0207257 0.0207619 0.0208 0.0208396 0.0208802 0.0209213 0.0209621 0.0210017 0.0210391 0.0210729 0.0211015 0.021123 0.0211353 0.0211359 0.0211219 0.0210903 0.0210374 0.0209594 0.0208524 0.0207123 0.0205351 0.0203173 0.0200559 0.0197487 0.0193947 0.0189941 0.0185488 0.0180625 0.0175413 0.0169921 0.0164218 0.0158378 0.015237 0.0146018 0.0139022 0.0131445 0.0122963 0.0113601 0.0103536 0.00928914 0.00818457 0.00703456 0.00583463 0.00458259 0.00324859 0.00181137 0.00023106 -0.00152242 -0.00352233 -0.00616406 -0.00887105 -0.0137271 -0.0201776 0 0 0 0 0 0 0 0 0 0 0 0 0 0 0 0 0 0 0 0 0 0 0 0 0 0 0 0 0 0 0 0 0 0 0 0 0 0 0 0 0 0 0 0 0 0 0 0 0 0 0 0 0 0 0 0 0 0 0 0 0 0 0 0 0 0 0 0 0 0 0 0 0 0 0 0 0 0 0 0 0 0 0 0 0 0 0 0 0 0 0 0 0 0 0 0 0 0 0 0 0 0 0 0 0 0 0 0 0 -0.00372883 -4.33681e-19 