# vtk DataFile Version 2.0
iteration 1701
ASCII

DATASET STRUCTURED_POINTS
DIMENSIONS 621 64 1
ORIGIN 0 0 0
SPACING 0.00161031 0.00161031 0.00161031

POINT_DATA 39744
SCALARS P float 1
LOOKUP_TABLE default
0 0 0 0 0 0 0 0 0 0 0 0 0 0 0 0 0 0 0 0 0 0 0 0 0 0 0 0 0 0 0 0 0 0 0 0 0 0 0 0 0 0 0 0 0 0 0 0 0 0 0 0 0 0 0 0 0 0 0 0 0 0 0 0 0 0 0 0 0 0 0 0 0 0 0 0 0 0 0 0 0 0 0 0 0 0 0 0 0 0 0 0 0 0 0 0 0 0 0 0 0 0 0 0 0 0 0 0 0 0 0 0 0 0 0 0 0 0 0 0 0 0 0 0 0 0 0 0 0 0 0 0 0 0 0 0 0 0 0 0 0 0 0 0 0 0 0 0 0 0 0 0 0 0 0 0 0 0 0 0 0 0 0 0 0 0 0 0 0 0 0 0 0 0 0 0 0 0 0 0 0 0 0 0 0 0 0 0 0 0 0 0 0 0 0 0 0 0 0 0 0 0 0 0 0 0 0 0 0 0 0 0 0 0 0 0 0 0 0 0 0 0 0 0 0 0 0 0 0 0 0 0 0 0 0 0 0 0 0 0 0 0 0 0 0 0 0 0 0 0 0 0 0 0 0 0 0 0 0 0 0 0 0 0 0 0 0 0 0 0 0 0 0 0 0 0 0 0 0 0 0 0 0 0 0 0 0 0 0 0 0 0 0 0 0 0 0 0 0 0 0 0 0 0 0 0 0 0 0 0 0 0 0 0 0 0 0 0 0 0 0 0 0 0 0 0 0 0 0 0 0 0 0 0 0 0 0 0 0 0 0 0 0 0 0 0 0 0 0 0 0 0 0 0 0 0 0 0 0 0 0 0 0 0 0 0 0 0 0 0 0 0 0 0 0 0 0 0 0 0 0 0 0 0 0 0 0 0 0 0 0 0 0 0 0 0 0 0 0 0 0 0 0 0 0 0 0 0 0 0 0 0 0 0 0 0 0 0 0 0 0 0 0 0 0 0 0 0 0 0 0 0 0 0 0 0 0 0 0 0 0 0 0 0 0 0 0 0 0 0 0 0 0 0 0 0 0 0 0 0 0 0 0 0 0 0 0 0 0 0 0 0 0 0 0 0 0 0 0 0 0 0 0 0 0 0 0 0 0 0 0 0 0 0 0 0 0 0 0 0 0 0 0 0 0 0 0 0 0 0 0 0 0 0 0 0 0 0 0 0 0 0 0 0 0 0 0 0 0 0 0 0 0 0 0 0 0 0 0 0 0 0 0 0 0 0 0 0 0 0 0 0 0 0 0 0 0 0 0 0 0 0 0 0 0 0 0 0 0 0 0 0 0 0 0 0 0 0 0 0 0 0 0 0 0 0 0 0 0 0 0 0 0 0 0 0 0 0 0 0 0 0 0 0 0 0 0 0 0 0 0 0 0 0 0 0 0 0 0 0 0 
0.02 0.02 0.02 0.02 0.02 0.02 0.02 0.02 0.02 0.02 0.02 0.02 0.02 0.02 0.02 0.02 0.02 0.02 0.02 0.02 0.02 0.02 0.02 0.02 0.02 0.02 0.02 0.02 0.02 0.02 0.02 0.02 0.02 0.02 0.02 0.02 0.02 0.02 0.02 0.02 0.02 0.02 0.02 0.02 0.02 0.02 0.02 0.02 0.02 0.02 0.02 0.02 0.02 0.02 0.02 0.02 0.02 0.02 0.02 0.02 0.02 0.02 0.02 0.02 0.02 0.02 0.02 0.02 0.02 0.02 0.02 0.02 0.02 0.02 0.02 0.02 0.02 0.02 0.02 0.02 0.02 0.02 0.02 0.02 0.02 0.02 0.02 0.02 0.02 0.02 0.02 0.02 0.02 0.02 0.02 0.02 0.02 0.02 0.02 0.02 0.02 0.02 0.02 0.02 0.02 0.02 0.02 0.02 0.02 0.02 0.02 0.02 0.02 0.02 0.02 0.02 0.02 0.02 0.02 0.02 0.02 0.02 0.02 0.02 0.02 0.02 0.02 0.02 0.02 0.02 0.02 0.02 0.02 0.02 0.02 0.02 0.0199999 0.0199999 0.0199999 0.0199999 0.0199999 0.0199999 0.0199999 0.0199999 0.0199999 0.0199999 0.0199999 0.0199999 0.0199998 0.0199998 0.0199998 0.0199998 0.0199998 0.0199998 0.0199997 0.0199997 0.0199997 0.0199997 0.0199996 0.0199996 0.0199995 0.0199995 0.0199994 0.0199994 0.0199993 0.0199992 0.0199992 0.0199991 0.019999 0.0199989 0.0199988 0.0199986 0.0199985 0.0199983 0.0199981 0.0199979 0.0199977 0.0199975 0.0199972 0.0199969 0.0199966 0.0199962 0.0199958 0.0199954 0.0199949 0.0199944 0.0199938 0.0199932 0.0199925 0.0199917 0.0199909 0.01999 0.019989 0.019988 0.0199868 0.0199856 0.0199842 0.0199828 0.0199812 0.0199796 0.0199778 0.0199759 0.0199738 0.0199716 0.0199693 0.0199668 0.0199642 0.0199613 0.0199584 0.0199552 0.0199519 0.0199484 0.0199447 0.0199409 0.0199368 0.0199326 0.0199281 0.0199235 0.0199187 0.0199137 0.0199085 0.0199031 0.0198975 0.0198917 0.0198857 0.0198795 0.0198728 0.019866 0.0198591 0.0198521 0.0198449 0.0198376 0.0198301 0.0198225 0.0198148 0.0198069 0.0197989 0.0197908 0.0197826 0.0197743 0.0197659 0.0197575 0.019749 0.0197404 0.0197318 0.0197232 0.0197145 0.0197059 0.0196972 0.0196886 0.01968 0.0196714 0.0196628 0.0196544 0.019646 0.0196376 0.0196294 0.0196213 0.0196132 0.0196053 0.0195975 0.0195898 0.0195823 0.0195749 0.0195676 0.0195605 0.0195536 0.0195468 0.0195402 0.0195337 0.0195274 0.0195213 0.0195153 0.0195095 0.0195038 0.0194982 0.0194928 0.0194875 0.0194823 0.0194772 0.0194722 0.0194673 0.0194624 0.0194575 0.0194527 0.0194478 0.0194429 0.0194379 0.0194329 0.0194277 0.0194224 0.019417 0.0194113 0.0194054 0.0193993 0.0193929 0.0193862 0.0193792 0.0193719 0.0193641 0.0193559 0.0193474 0.0193384 0.0193293 0.0193202 0.0193103 0.0193007 0.0192909 0.0192809 0.0192705 0.0192599 0.019249 0.0192379 0.0192266 0.0192151 0.0192035 0.0191917 0.0191798 0.0191679 0.019156 0.0191441 0.0191322 0.0191205 0.0191089 0.0190975 0.0190863 0.0190754 0.0190648 0.0190546 0.0190448 0.0190354 0.0190264 0.019018 0.0190101 0.0190028 0.018996 0.0189898 0.0189843 0.0189793 0.018975 0.0189713 0.0189683 0.0189658 0.018964 0.0189627 0.0189621 0.018962 0.0189623 0.0189632 0.0189646 0.0189664 0.0189685 0.018971 0.0189738 0.0189769 0.0189802 0.0189836 0.0189872 0.0189909 0.0189947 0.0189985 0.0190022 0.0190059 0.0190095 0.0190129 0.0190161 0.0190191 0.0190217 0.0190237 0.019024 0.01902 0.0190157 0.0190113 0.0190058 0.0189992 0.0189913 0.0189818 0.0189708 0.0189579 0.0189428 0.018925 0.0189042 0.0188797 0.0188509 0.018817 0.0187772 0.0187302 0.0186748 0.0186095 0.0185329 0.018443 0.0183382 0.0182168 0.0180771 0.0179173 0.017736 0.0175314 0.0173019 0.0170459 0.0167613 0.0164465 0.0160998 0.0157193 0.0153036 0.0148514 0.0143617 0.0138342 0.0132688 0.0126652 0.0120267 0.0113633 0.0106983 0.0101054 0.00949334 0.0103868 0 0 0 0 0 0 0 0 0 0 0 0 0 0 0 0 0 0 0 0 0 0 0 0 0 0 0 0 0 0 0 0 0 0 0 0 0 0 0 0 0 0 0 0 0 0 0 0 0 0 0 0 0 0 0 0 0 0 0 0 0 0 0 0 0 0 0 0 0 0 0 0 0 0 0 0 0 0 0 0 0 0 0 0 0 0 0 0 0 0 0 0 0 0 0 0 0 0 0 0 0 0 0 0 0 0 0 0 0 0 0 0 0 0 0 0 0 0 0 0 0 0 0 0 0 0 0 0 0 0 0 0 0 0 0 0 0 0 0 0 0 0 0 0 0 0 0 0 0 0 0 0 0 0 0 0 0 0 0 0 0 0 0 0 0 0 0 0 0 0 0 0 0 0 0 0 0 0 0 0 0 0 0 0 0 0 0 0 0 0 0 0 0 0 0 0 0 0 0 0 0 0 0 0 0 0 
0.02 0.02 0.02 0.02 0.02 0.02 0.02 0.02 0.02 0.02 0.02 0.02 0.02 0.02 0.02 0.02 0.02 0.02 0.02 0.02 0.02 0.02 0.02 0.02 0.02 0.02 0.02 0.02 0.02 0.02 0.02 0.02 0.02 0.02 0.02 0.02 0.02 0.02 0.02 0.02 0.02 0.02 0.02 0.02 0.02 0.02 0.02 0.02 0.02 0.02 0.02 0.02 0.02 0.02 0.02 0.02 0.02 0.02 0.02 0.02 0.02 0.02 0.02 0.02 0.02 0.02 0.02 0.02 0.02 0.02 0.02 0.02 0.02 0.02 0.02 0.02 0.02 0.02 0.02 0.02 0.02 0.02 0.02 0.02 0.02 0.02 0.02 0.02 0.02 0.02 0.02 0.02 0.02 0.02 0.02 0.02 0.02 0.02 0.02 0.02 0.02 0.02 0.02 0.02 0.02 0.02 0.02 0.02 0.02 0.02 0.02 0.02 0.02 0.02 0.02 0.02 0.02 0.02 0.02 0.02 0.02 0.02 0.02 0.02 0.02 0.02 0.02 0.02 0.02 0.02 0.02 0.02 0.02 0.02 0.02 0.02 0.02 0.0199999 0.0199999 0.0199999 0.0199999 0.0199999 0.0199999 0.0199999 0.0199999 0.0199999 0.0199999 0.0199999 0.0199999 0.0199998 0.0199998 0.0199998 0.0199998 0.0199998 0.0199997 0.0199997 0.0199997 0.0199997 0.0199996 0.0199996 0.0199996 0.0199995 0.0199995 0.0199994 0.0199993 0.0199993 0.0199992 0.0199991 0.019999 0.0199989 0.0199988 0.0199987 0.0199985 0.0199984 0.0199982 0.019998 0.0199978 0.0199975 0.0199973 0.019997 0.0199966 0.0199963 0.0199959 0.0199955 0.019995 0.0199945 0.0199939 0.0199933 0.0199926 0.0199918 0.019991 0.0199901 0.0199892 0.0199881 0.019987 0.0199857 0.0199844 0.019983 0.0199814 0.0199798 0.019978 0.0199761 0.0199741 0.0199719 0.0199696 0.0199671 0.0199644 0.0199617 0.0199587 0.0199556 0.0199523 0.0199488 0.0199451 0.0199413 0.0199372 0.019933 0.0199286 0.0199239 0.0199191 0.0199141 0.0199089 0.0199035 0.0198979 0.0198922 0.0198862 0.01988 0.0198735 0.0198667 0.0198598 0.0198528 0.0198456 0.0198383 0.0198309 0.0198233 0.0198155 0.0198077 0.0197997 0.0197916 0.0197834 0.0197751 0.0197667 0.0197582 0.0197497 0.0197411 0.0197325 0.0197239 0.0197152 0.0197065 0.0196979 0.0196892 0.0196806 0.019672 0.0196634 0.0196549 0.0196465 0.0196381 0.0196298 0.0196217 0.0196136 0.0196056 0.0195978 0.01959 0.0195825 0.019575 0.0195677 0.0195606 0.0195536 0.0195467 0.01954 0.0195335 0.0195271 0.0195209 0.0195149 0.019509 0.0195032 0.0194976 0.0194921 0.0194867 0.0194815 0.0194763 0.0194712 0.0194662 0.0194613 0.0194563 0.0194514 0.0194464 0.0194414 0.0194364 0.0194313 0.019426 0.0194206 0.0194151 0.0194093 0.0194033 0.0193971 0.0193906 0.0193839 0.0193768 0.0193695 0.0193618 0.0193539 0.0193458 0.0193372 0.0193284 0.0193196 0.0193106 0.0193014 0.0192918 0.0192819 0.0192718 0.0192614 0.0192507 0.0192398 0.0192287 0.0192174 0.019206 0.0191944 0.0191828 0.0191711 0.0191594 0.0191477 0.019136 0.0191245 0.0191131 0.0191018 0.0190908 0.0190801 0.0190697 0.0190596 0.0190499 0.0190407 0.0190318 0.0190235 0.0190157 0.0190084 0.0190017 0.0189956 0.0189901 0.0189852 0.0189809 0.0189772 0.0189741 0.0189716 0.0189697 0.0189684 0.0189677 0.0189675 0.0189678 0.0189686 0.0189698 0.0189715 0.0189735 0.0189759 0.0189786 0.0189815 0.0189846 0.0189879 0.0189914 0.0189949 0.0189985 0.0190021 0.0190057 0.0190092 0.0190126 0.0190158 0.0190189 0.0190216 0.019024 0.0190255 0.0190255 0.019023 0.0190193 0.0190149 0.0190095 0.0190029 0.018995 0.0189857 0.0189748 0.018962 0.0189471 0.0189295 0.0189089 0.0188848 0.0188564 0.0188229 0.0187836 0.0187372 0.0186825 0.0186181 0.0185423 0.0184534 0.0183498 0.0182296 0.0180912 0.0179329 0.0177531 0.0175502 0.0173225 0.0170683 0.0167858 0.0164731 0.0161286 0.0157505 0.0153373 0.0148876 0.0144005 0.0138756 0.0133127 0.0127121 0.0120768 0.011423 0.0107845 0.0102146 0.00931032 0.00910767 0.00831953 0.00739545 0.00654546 0.0056009 0.00464053 0.00416993 0 0 0 0 0 0 0 0 0 0 0 0 0 0 0 0 0 0 0 0 0 0 0 0 0 0 0 0 0 0 0 0 0 0 0 0 0 0 0 0 0 0 0 0 0 0 0 0 0 0 0 0 0 0 0 0 0 0 0 0 0 0 0 0 0 0 0 0 0 0 0 0 0 0 0 0 0 0 0 0 0 0 0 0 0 0 0 0 0 0 0 0 0 0 0 0 0 0 0 0 0 0 0 0 0 0 0 0 0 0 0 0 0 0 0 0 0 0 0 0 0 0 0 0 0 0 0 0 0 0 0 0 0 0 0 0 0 0 0 0 0 0 0 0 0 0 0 0 0 0 0 0 0 0 0 0 0 0 0 0 0 0 0 0 0 0 0 0 0 0 0 0 0 0 0 0 0 0 0 0 0 0 0 0 0 0 0 0 0 0 0 0 0 0 0 0 0 0 0 0 
0.02 0.02 0.02 0.02 0.02 0.02 0.02 0.02 0.02 0.02 0.02 0.02 0.02 0.02 0.02 0.02 0.02 0.02 0.02 0.02 0.02 0.02 0.02 0.02 0.02 0.02 0.02 0.02 0.02 0.02 0.02 0.02 0.02 0.02 0.02 0.02 0.02 0.02 0.02 0.02 0.02 0.02 0.02 0.02 0.02 0.02 0.02 0.02 0.02 0.02 0.02 0.02 0.02 0.02 0.02 0.02 0.02 0.02 0.02 0.02 0.02 0.02 0.02 0.02 0.02 0.02 0.02 0.02 0.02 0.02 0.02 0.02 0.02 0.02 0.02 0.02 0.02 0.02 0.02 0.02 0.02 0.02 0.02 0.02 0.02 0.02 0.02 0.02 0.02 0.02 0.02 0.02 0.02 0.02 0.02 0.02 0.02 0.02 0.02 0.02 0.02 0.02 0.02 0.02 0.02 0.02 0.02 0.02 0.02 0.02 0.02 0.02 0.02 0.02 0.02 0.02 0.02 0.02 0.02 0.02 0.02 0.02 0.02 0.02 0.02 0.02 0.02 0.02 0.02 0.02 0.02 0.02 0.02 0.02 0.02 0.02 0.02 0.0199999 0.0199999 0.0199999 0.0199999 0.0199999 0.0199999 0.0199999 0.0199999 0.0199999 0.0199999 0.0199999 0.0199999 0.0199998 0.0199998 0.0199998 0.0199998 0.0199998 0.0199998 0.0199997 0.0199997 0.0199997 0.0199996 0.0199996 0.0199996 0.0199995 0.0199995 0.0199994 0.0199994 0.0199993 0.0199992 0.0199991 0.019999 0.0199989 0.0199988 0.0199987 0.0199986 0.0199984 0.0199982 0.019998 0.0199978 0.0199976 0.0199973 0.019997 0.0199967 0.0199964 0.019996 0.0199956 0.0199951 0.0199946 0.019994 0.0199934 0.0199927 0.019992 0.0199912 0.0199903 0.0199893 0.0199883 0.0199872 0.0199859 0.0199846 0.0199832 0.0199817 0.01998 0.0199783 0.0199764 0.0199744 0.0199722 0.0199699 0.0199674 0.0199648 0.019962 0.0199591 0.019956 0.0199527 0.0199492 0.0199456 0.0199418 0.0199377 0.0199335 0.0199291 0.0199245 0.0199197 0.0199148 0.0199096 0.0199042 0.0198986 0.0198929 0.0198869 0.0198807 0.0198743 0.0198676 0.0198607 0.0198537 0.0198466 0.0198393 0.0198318 0.0198242 0.0198165 0.0198086 0.0198006 0.0197925 0.0197843 0.019776 0.0197677 0.0197592 0.0197507 0.0197421 0.0197335 0.0197248 0.0197161 0.0197075 0.0196988 0.0196901 0.0196814 0.0196728 0.0196642 0.0196557 0.0196472 0.0196388 0.0196305 0.0196222 0.0196141 0.0196061 0.0195982 0.0195904 0.0195827 0.0195752 0.0195678 0.0195606 0.0195535 0.0195466 0.0195398 0.0195332 0.0195268 0.0195205 0.0195143 0.0195083 0.0195024 0.0194967 0.0194911 0.0194856 0.0194803 0.019475 0.0194698 0.0194646 0.0194596 0.0194545 0.0194494 0.0194444 0.0194392 0.0194341 0.0194288 0.0194234 0.0194179 0.0194122 0.0194064 0.0194004 0.0193941 0.0193877 0.019381 0.0193741 0.0193671 0.0193597 0.0193521 0.0193443 0.0193365 0.0193284 0.01932 0.0193113 0.0193024 0.0192931 0.0192836 0.0192738 0.0192638 0.0192535 0.019243 0.0192324 0.0192215 0.0192105 0.0191993 0.0191881 0.0191768 0.0191655 0.0191542 0.019143 0.0191319 0.0191209 0.01911 0.0190994 0.0190891 0.019079 0.0190692 0.0190599 0.0190509 0.0190424 0.0190343 0.0190268 0.0190197 0.0190132 0.0190073 0.0190019 0.0189971 0.0189929 0.0189893 0.0189863 0.0189839 0.018982 0.0189807 0.01898 0.0189797 0.01898 0.0189807 0.0189818 0.0189834 0.0189853 0.0189875 0.01899 0.0189928 0.0189957 0.0189989 0.0190021 0.0190054 0.0190088 0.0190122 0.0190156 0.0190189 0.0190221 0.0190252 0.019028 0.0190306 0.0190326 0.0190337 0.0190333 0.0190311 0.0190276 0.0190232 0.0190177 0.0190112 0.0190034 0.0189943 0.0189835 0.018971 0.0189563 0.018939 0.0189188 0.018895 0.0188671 0.0188342 0.0187955 0.0187498 0.0186959 0.0186323 0.0185575 0.0184698 0.0183674 0.0182486 0.0181117 0.0179552 0.0177773 0.0175764 0.0173511 0.0170994 0.0168198 0.0165103 0.0161692 0.0157949 0.0153858 0.0149405 0.014458 0.0139382 0.0133811 0.0127877 0.012164 0.0115327 0.0109325 0.0103793 0.00981054 0.00909219 0.00826791 0.00743329 0.00654559 0.0056048 0.00468348 0.00384288 0.00286769 0.00181022 0.000666056 -5.11611e-05 0 0 0 0 0 0 0 0 0 0 0 0 0 0 0 0 0 0 0 0 0 0 0 0 0 0 0 0 0 0 0 0 0 0 0 0 0 0 0 0 0 0 0 0 0 0 0 0 0 0 0 0 0 0 0 0 0 0 0 0 0 0 0 0 0 0 0 0 0 0 0 0 0 0 0 0 0 0 0 0 0 0 0 0 0 0 0 0 0 0 0 0 0 0 0 0 0 0 0 0 0 0 0 0 0 0 0 0 0 0 0 0 0 0 0 0 0 0 0 0 0 0 0 0 0 0 0 0 0 0 0 0 0 0 0 0 0 0 0 0 0 0 0 0 0 0 0 0 0 0 0 0 0 0 0 0 0 0 0 0 0 0 0 0 0 0 0 0 0 0 0 0 0 0 0 0 0 0 0 0 0 0 0 0 0 0 0 0 0 0 0 0 0 0 0 2.1684e-19 
0.02 0.02 0.02 0.02 0.02 0.02 0.02 0.02 0.02 0.02 0.02 0.02 0.02 0.02 0.02 0.02 0.02 0.02 0.02 0.02 0.02 0.02 0.02 0.02 0.02 0.02 0.02 0.02 0.02 0.02 0.02 0.02 0.02 0.02 0.02 0.02 0.02 0.02 0.02 0.02 0.02 0.02 0.02 0.02 0.02 0.02 0.02 0.02 0.02 0.02 0.02 0.02 0.02 0.02 0.02 0.02 0.02 0.02 0.02 0.02 0.02 0.02 0.02 0.02 0.02 0.02 0.02 0.02 0.02 0.02 0.02 0.02 0.02 0.02 0.02 0.02 0.02 0.02 0.02 0.02 0.02 0.02 0.02 0.02 0.02 0.02 0.02 0.02 0.02 0.02 0.02 0.02 0.02 0.02 0.02 0.02 0.02 0.02 0.02 0.02 0.02 0.02 0.02 0.02 0.02 0.02 0.02 0.02 0.02 0.02 0.02 0.02 0.02 0.02 0.02 0.02 0.02 0.02 0.02 0.02 0.02 0.02 0.02 0.02 0.02 0.02 0.02 0.02 0.02 0.02 0.02 0.02 0.02 0.02 0.02 0.02 0.02 0.0199999 0.0199999 0.0199999 0.0199999 0.0199999 0.0199999 0.0199999 0.0199999 0.0199999 0.0199999 0.0199999 0.0199999 0.0199999 0.0199998 0.0199998 0.0199998 0.0199998 0.0199998 0.0199997 0.0199997 0.0199997 0.0199997 0.0199996 0.0199996 0.0199995 0.0199995 0.0199994 0.0199994 0.0199993 0.0199993 0.0199992 0.0199991 0.019999 0.0199989 0.0199988 0.0199986 0.0199985 0.0199983 0.0199981 0.0199979 0.0199977 0.0199974 0.0199971 0.0199968 0.0199965 0.0199961 0.0199957 0.0199952 0.0199947 0.0199942 0.0199935 0.0199929 0.0199922 0.0199914 0.0199905 0.0199896 0.0199885 0.0199874 0.0199862 0.0199849 0.0199835 0.019982 0.0199804 0.0199786 0.0199768 0.0199748 0.0199726 0.0199703 0.0199679 0.0199653 0.0199626 0.0199597 0.0199566 0.0199533 0.0199499 0.0199463 0.0199425 0.0199385 0.0199343 0.0199299 0.0199253 0.0199206 0.0199156 0.0199105 0.0199051 0.0198996 0.0198938 0.0198879 0.0198818 0.0198754 0.0198688 0.019862 0.019855 0.0198479 0.0198406 0.0198331 0.0198255 0.0198178 0.01981 0.019802 0.0197939 0.0197858 0.0197775 0.0197691 0.0197606 0.0197521 0.0197435 0.0197349 0.0197263 0.0197176 0.0197089 0.0197002 0.0196914 0.0196828 0.0196741 0.0196655 0.0196569 0.0196484 0.0196399 0.0196316 0.0196233 0.0196151 0.019607 0.019599 0.0195912 0.0195834 0.0195758 0.0195684 0.019561 0.0195539 0.0195468 0.01954 0.0195332 0.0195266 0.0195202 0.0195139 0.0195078 0.0195018 0.019496 0.0194902 0.0194846 0.0194791 0.0194736 0.0194683 0.019463 0.0194577 0.0194525 0.0194473 0.0194421 0.0194368 0.0194315 0.0194262 0.0194207 0.0194151 0.0194095 0.0194037 0.0193977 0.0193916 0.0193854 0.0193791 0.0193725 0.0193658 0.019359 0.019352 0.0193448 0.0193373 0.0193296 0.0193217 0.0193135 0.019305 0.0192962 0.0192872 0.0192779 0.0192684 0.0192587 0.0192488 0.0192387 0.0192284 0.0192179 0.0192074 0.0191968 0.0191861 0.0191754 0.0191647 0.019154 0.0191434 0.019133 0.0191227 0.0191126 0.0191027 0.0190932 0.0190839 0.019075 0.0190664 0.0190583 0.0190506 0.0190434 0.0190366 0.0190304 0.0190247 0.0190196 0.019015 0.0190109 0.0190074 0.0190045 0.0190021 0.0190003 0.018999 0.0189982 0.0189979 0.0189981 0.0189987 0.0189997 0.0190011 0.0190028 0.0190048 0.0190071 0.0190096 0.0190123 0.0190152 0.0190182 0.0190212 0.0190243 0.0190274 0.0190305 0.0190336 0.0190365 0.0190393 0.0190419 0.0190441 0.0190457 0.0190463 0.0190455 0.0190433 0.0190398 0.0190353 0.0190298 0.0190233 0.0190156 0.0190066 0.018996 0.0189837 0.0189693 0.0189523 0.0189325 0.0189092 0.0188818 0.0188496 0.0188116 0.0187668 0.0187138 0.0186514 0.0185779 0.0184916 0.0183909 0.018274 0.0181393 0.0179851 0.01781 0.0176122 0.0173903 0.0171425 0.0168672 0.0165625 0.0162268 0.0158583 0.0154556 0.0150171 0.0145421 0.0140307 0.0134841 0.012905 0.012302 0.0116951 0.0111141 0.0105498 0.00994194 0.00922182 0.00840953 0.00754453 0.00663488 0.00569004 0.00475863 0.00382809 0.00283125 0.00179495 0.000685872 -0.000425125 -0.0018539 -0.00365817 0 0 0 0 0 0 0 0 0 0 0 0 0 0 0 0 0 0 0 0 0 0 0 0 0 0 0 0 0 0 0 0 0 0 0 0 0 0 0 0 0 0 0 0 0 0 0 0 0 0 0 0 0 0 0 0 0 0 0 0 0 0 0 0 0 0 0 0 0 0 0 0 0 0 0 0 0 0 0 0 0 0 0 0 0 0 0 0 0 0 0 0 0 0 0 0 0 0 0 0 0 0 0 0 0 0 0 0 0 0 0 0 0 0 0 0 0 0 0 0 0 0 0 0 0 0 0 0 0 0 0 0 0 0 0 0 0 0 0 0 0 0 0 0 0 0 0 0 0 0 0 0 0 0 0 0 0 0 0 0 0 0 0 0 0 0 0 0 0 0 0 0 0 0 0 0 0 0 0 0 0 0 0 0 0 0 0 0 0 0 0 0 0 2.1684e-19 
0.02 0.02 0.02 0.02 0.02 0.02 0.02 0.02 0.02 0.02 0.02 0.02 0.02 0.02 0.02 0.02 0.02 0.02 0.02 0.02 0.02 0.02 0.02 0.02 0.02 0.02 0.02 0.02 0.02 0.02 0.02 0.02 0.02 0.02 0.02 0.02 0.02 0.02 0.02 0.02 0.02 0.02 0.02 0.02 0.02 0.02 0.02 0.02 0.02 0.02 0.02 0.02 0.02 0.02 0.02 0.02 0.02 0.02 0.02 0.02 0.02 0.02 0.02 0.02 0.02 0.02 0.02 0.02 0.02 0.02 0.02 0.02 0.02 0.02 0.02 0.02 0.02 0.02 0.02 0.02 0.02 0.02 0.02 0.02 0.02 0.02 0.02 0.02 0.02 0.02 0.02 0.02 0.02 0.02 0.02 0.02 0.02 0.02 0.02 0.02 0.02 0.02 0.02 0.02 0.02 0.02 0.02 0.02 0.02 0.02 0.02 0.02 0.02 0.02 0.02 0.02 0.02 0.02 0.02 0.02 0.02 0.02 0.02 0.02 0.02 0.02 0.02 0.02 0.02 0.02 0.02 0.02 0.02 0.02 0.02 0.02 0.02 0.02 0.0199999 0.0199999 0.0199999 0.0199999 0.0199999 0.0199999 0.0199999 0.0199999 0.0199999 0.0199999 0.0199999 0.0199999 0.0199998 0.0199998 0.0199998 0.0199998 0.0199998 0.0199998 0.0199997 0.0199997 0.0199997 0.0199997 0.0199996 0.0199996 0.0199995 0.0199995 0.0199994 0.0199994 0.0199993 0.0199992 0.0199991 0.019999 0.0199989 0.0199988 0.0199987 0.0199985 0.0199984 0.0199982 0.019998 0.0199978 0.0199975 0.0199973 0.019997 0.0199966 0.0199962 0.0199958 0.0199954 0.0199949 0.0199944 0.0199938 0.0199931 0.0199924 0.0199916 0.0199908 0.0199898 0.0199888 0.0199877 0.0199866 0.0199853 0.0199839 0.0199824 0.0199808 0.0199791 0.0199773 0.0199753 0.0199732 0.0199709 0.0199685 0.019966 0.0199632 0.0199604 0.0199573 0.0199541 0.0199507 0.0199471 0.0199433 0.0199394 0.0199353 0.0199309 0.0199264 0.0199217 0.0199168 0.0199116 0.0199063 0.0199008 0.0198951 0.0198893 0.0198832 0.0198769 0.0198703 0.0198636 0.0198567 0.0198495 0.0198423 0.0198349 0.0198273 0.0198196 0.0198118 0.0198039 0.0197958 0.0197876 0.0197794 0.019771 0.0197626 0.0197541 0.0197455 0.0197369 0.0197282 0.0197195 0.0197108 0.0197021 0.0196934 0.0196847 0.019676 0.0196673 0.0196587 0.0196502 0.0196417 0.0196332 0.0196249 0.0196166 0.0196085 0.0196004 0.0195925 0.0195847 0.019577 0.0195694 0.019562 0.0195547 0.0195475 0.0195405 0.0195336 0.0195269 0.0195204 0.0195139 0.0195076 0.0195015 0.0194955 0.0194896 0.0194838 0.0194781 0.0194725 0.0194669 0.0194615 0.0194561 0.0194507 0.0194453 0.01944 0.0194346 0.0194293 0.0194239 0.0194184 0.019413 0.0194074 0.0194018 0.0193961 0.0193904 0.0193845 0.0193786 0.0193725 0.0193663 0.01936 0.0193534 0.0193467 0.0193397 0.0193325 0.019325 0.0193174 0.0193095 0.0193013 0.019293 0.0192843 0.0192755 0.0192665 0.0192573 0.0192479 0.0192383 0.0192286 0.0192188 0.0192089 0.019199 0.019189 0.019179 0.0191691 0.0191592 0.0191495 0.0191398 0.0191304 0.0191212 0.0191122 0.0191035 0.0190951 0.0190871 0.0190794 0.0190722 0.0190653 0.019059 0.0190531 0.0190477 0.0190428 0.0190384 0.0190345 0.0190312 0.0190283 0.019026 0.0190242 0.0190228 0.019022 0.0190216 0.0190216 0.019022 0.0190229 0.019024 0.0190255 0.0190272 0.0190292 0.0190314 0.0190338 0.0190364 0.019039 0.0190417 0.0190444 0.0190472 0.0190499 0.0190526 0.0190552 0.0190576 0.0190598 0.0190615 0.0190625 0.0190626 0.0190614 0.019059 0.0190554 0.0190508 0.0190453 0.0190387 0.0190311 0.0190222 0.0190118 0.0189997 0.0189855 0.018969 0.0189496 0.0189268 0.0189 0.0188685 0.0188314 0.0187875 0.0187358 0.0186747 0.0186028 0.0185184 0.0184198 0.0183054 0.0181735 0.0180226 0.0178511 0.0176575 0.0174402 0.0171977 0.0169282 0.01663 0.0163015 0.015941 0.015547 0.0151183 0.0146542 0.0141558 0.0136256 0.0130678 0.012491 0.01191 0.011336 0.0107565 0.0101255 0.00940139 0.00859111 0.00771439 0.00678946 0.00583184 0.00486514 0.00387766 0.00284632 0.00177534 0.000643246 -0.000581695 -0.00202611 -0.00382114 -0.00638439 -0.00983876 0 0 0 0 0 0 0 0 0 0 0 0 0 0 0 0 0 0 0 0 0 0 0 0 0 0 0 0 0 0 0 0 0 0 0 0 0 0 0 0 0 0 0 0 0 0 0 0 0 0 0 0 0 0 0 0 0 0 0 0 0 0 0 0 0 0 0 0 0 0 0 0 0 0 0 0 0 0 0 0 0 0 0 0 0 0 0 0 0 0 0 0 0 0 0 0 0 0 0 0 0 0 0 0 0 0 0 0 0 0 0 0 0 0 0 0 0 0 0 0 0 0 0 0 0 0 0 0 0 0 0 0 0 0 0 0 0 0 0 0 0 0 0 0 0 0 0 0 0 0 0 0 0 0 0 0 0 0 0 0 0 0 0 0 0 0 0 0 0 0 0 0 0 0 0 0 0 0 0 0 0 0 0 0 0 0 0 0 0 0 -0.00464827 -2.1684e-19 
0.02 0.02 0.02 0.02 0.02 0.02 0.02 0.02 0.02 0.02 0.02 0.02 0.02 0.02 0.02 0.02 0.02 0.02 0.02 0.02 0.02 0.02 0.02 0.02 0.02 0.02 0.02 0.02 0.02 0.02 0.02 0.02 0.02 0.02 0.02 0.02 0.02 0.02 0.02 0.02 0.02 0.02 0.02 0.02 0.02 0.02 0.02 0.02 0.02 0.02 0.02 0.02 0.02 0.02 0.02 0.02 0.02 0.02 0.02 0.02 0.02 0.02 0.02 0.02 0.02 0.02 0.02 0.02 0.02 0.02 0.02 0.02 0.02 0.02 0.02 0.02 0.02 0.02 0.02 0.02 0.02 0.02 0.02 0.02 0.02 0.02 0.02 0.02 0.02 0.02 0.02 0.02 0.02 0.02 0.02 0.02 0.02 0.02 0.02 0.02 0.02 0.02 0.02 0.02 0.02 0.02 0.02 0.02 0.02 0.02 0.02 0.02 0.02 0.02 0.02 0.02 0.02 0.02 0.02 0.02 0.02 0.02 0.02 0.02 0.02 0.02 0.02 0.02 0.02 0.02 0.02 0.02 0.02 0.02 0.02 0.02 0.02 0.02 0.02 0.0199999 0.0199999 0.0199999 0.0199999 0.0199999 0.0199999 0.0199999 0.0199999 0.0199999 0.0199999 0.0199999 0.0199999 0.0199999 0.0199998 0.0199998 0.0199998 0.0199998 0.0199998 0.0199997 0.0199997 0.0199997 0.0199997 0.0199996 0.0199996 0.0199995 0.0199995 0.0199994 0.0199994 0.0199993 0.0199992 0.0199991 0.019999 0.0199989 0.0199988 0.0199986 0.0199985 0.0199983 0.0199981 0.0199979 0.0199977 0.0199974 0.0199971 0.0199968 0.0199964 0.019996 0.0199956 0.0199951 0.0199946 0.019994 0.0199934 0.0199927 0.0199919 0.0199911 0.0199902 0.0199892 0.0199882 0.019987 0.0199857 0.0199844 0.0199829 0.0199814 0.0199797 0.0199779 0.0199759 0.0199739 0.0199716 0.0199693 0.0199668 0.0199641 0.0199612 0.0199582 0.0199551 0.0199517 0.0199482 0.0199444 0.0199405 0.0199365 0.0199322 0.0199277 0.019923 0.0199182 0.0199131 0.0199078 0.0199024 0.0198967 0.0198909 0.0198849 0.0198786 0.0198722 0.0198655 0.0198587 0.0198516 0.0198444 0.019837 0.0198295 0.0198219 0.0198141 0.0198062 0.0197982 0.01979 0.0197818 0.0197735 0.0197651 0.0197566 0.019748 0.0197394 0.0197308 0.0197221 0.0197133 0.0197046 0.0196959 0.0196872 0.0196785 0.0196698 0.0196611 0.0196525 0.019644 0.0196355 0.0196271 0.0196188 0.0196105 0.0196024 0.0195943 0.0195864 0.0195786 0.0195709 0.0195634 0.019556 0.0195487 0.0195415 0.0195345 0.0195276 0.0195209 0.0195143 0.0195078 0.0195015 0.0194953 0.0194892 0.0194832 0.0194774 0.0194716 0.0194659 0.0194603 0.0194547 0.0194492 0.0194438 0.0194384 0.019433 0.0194277 0.0194224 0.0194171 0.0194118 0.0194065 0.0194012 0.0193959 0.0193905 0.0193851 0.0193796 0.019374 0.0193682 0.0193623 0.0193563 0.01935 0.0193436 0.019337 0.0193302 0.0193232 0.019316 0.0193086 0.019301 0.0192932 0.0192851 0.0192769 0.0192685 0.01926 0.0192513 0.0192425 0.0192335 0.0192245 0.0192154 0.0192063 0.0191972 0.0191881 0.0191791 0.0191701 0.0191613 0.0191526 0.0191441 0.0191358 0.0191278 0.01912 0.0191126 0.0191055 0.0190987 0.0190924 0.0190864 0.0190809 0.0190758 0.0190712 0.019067 0.0190634 0.0190601 0.0190574 0.0190551 0.0190533 0.0190519 0.0190509 0.0190504 0.0190502 0.0190505 0.019051 0.0190519 0.0190531 0.0190545 0.0190561 0.019058 0.0190599 0.0190621 0.0190643 0.0190665 0.0190688 0.0190712 0.0190734 0.0190757 0.0190778 0.0190797 0.0190813 0.0190824 0.0190828 0.0190823 0.0190807 0.0190779 0.0190742 0.0190694 0.0190638 0.0190572 0.0190496 0.0190408 0.0190306 0.0190186 0.0190048 0.0189885 0.0189695 0.0189473 0.0189212 0.0188905 0.0188543 0.0188116 0.0187612 0.0187017 0.0186317 0.0185495 0.0184535 0.0183421 0.0182137 0.0180668 0.0178999 0.0177114 0.0175 0.017264 0.0170018 0.0167118 0.0163923 0.0160419 0.0156593 0.0152436 0.0147947 0.0143141 0.0138059 0.0132754 0.0127284 0.0121716 0.011604 0.0110116 0.0103603 0.00962866 0.00881589 0.00793342 0.00699633 0.00601964 0.0050154 0.00397787 0.00289711 0.0017677 0.000559791 -0.000769431 -0.00228661 -0.00411863 -0.00648093 -0.00959271 -0.0138946 -0.0193589 0 0 0 0 0 0 0 0 0 0 0 0 0 0 0 0 0 0 0 0 0 0 0 0 0 0 0 0 0 0 0 0 0 0 0 0 0 0 0 0 0 0 0 0 0 0 0 0 0 0 0 0 0 0 0 0 0 0 0 0 0 0 0 0 0 0 0 0 0 0 0 0 0 0 0 0 0 0 0 0 0 0 0 0 0 0 0 0 0 0 0 0 0 0 0 0 0 0 0 0 0 0 0 0 0 0 0 0 0 0 0 0 0 0 0 0 0 0 0 0 0 0 0 0 0 0 0 0 0 0 0 0 0 0 0 0 0 0 0 0 0 0 0 0 0 0 0 0 0 0 0 0 0 0 0 0 0 0 0 0 0 0 0 0 0 0 0 0 0 0 0 0 0 0 0 0 0 0 0 0 0 0 0 0 0 0 0 -0.0168342 -0.00852712 -8.67362e-19 
0.02 0.02 0.02 0.02 0.02 0.02 0.02 0.02 0.02 0.02 0.02 0.02 0.02 0.02 0.02 0.02 0.02 0.02 0.02 0.02 0.02 0.02 0.02 0.02 0.02 0.02 0.02 0.02 0.02 0.02 0.02 0.02 0.02 0.02 0.02 0.02 0.02 0.02 0.02 0.02 0.02 0.02 0.02 0.02 0.02 0.02 0.02 0.02 0.02 0.02 0.02 0.02 0.02 0.02 0.02 0.02 0.02 0.02 0.02 0.02 0.02 0.02 0.02 0.02 0.02 0.02 0.02 0.02 0.02 0.02 0.02 0.02 0.02 0.02 0.02 0.02 0.02 0.02 0.02 0.02 0.02 0.02 0.02 0.02 0.02 0.02 0.02 0.02 0.02 0.02 0.02 0.02 0.02 0.02 0.02 0.02 0.02 0.02 0.02 0.02 0.02 0.02 0.02 0.02 0.02 0.02 0.02 0.02 0.02 0.02 0.02 0.02 0.02 0.02 0.02 0.02 0.02 0.02 0.02 0.02 0.02 0.02 0.02 0.02 0.02 0.02 0.02 0.02 0.02 0.02 0.02 0.02 0.02 0.02 0.02 0.02 0.02 0.02 0.02 0.02 0.02 0.0199999 0.0199999 0.0199999 0.0199999 0.0199999 0.0199999 0.0199999 0.0199999 0.0199999 0.0199999 0.0199999 0.0199999 0.0199998 0.0199998 0.0199998 0.0199998 0.0199998 0.0199997 0.0199997 0.0199997 0.0199997 0.0199996 0.0199996 0.0199995 0.0199995 0.0199994 0.0199994 0.0199993 0.0199992 0.0199991 0.019999 0.0199989 0.0199988 0.0199986 0.0199984 0.0199983 0.0199981 0.0199978 0.0199976 0.0199973 0.019997 0.0199967 0.0199963 0.0199959 0.0199954 0.0199949 0.0199943 0.0199937 0.019993 0.0199923 0.0199915 0.0199906 0.0199897 0.0199886 0.0199875 0.0199863 0.019985 0.0199835 0.019982 0.0199804 0.0199786 0.0199767 0.0199747 0.0199725 0.0199702 0.0199677 0.0199651 0.0199623 0.0199593 0.0199562 0.0199529 0.0199494 0.0199458 0.0199419 0.0199379 0.0199336 0.0199292 0.0199246 0.0199198 0.0199148 0.0199096 0.0199042 0.0198987 0.0198929 0.0198869 0.0198808 0.0198744 0.0198678 0.019861 0.0198541 0.0198469 0.0198396 0.0198322 0.0198246 0.0198169 0.019809 0.019801 0.0197929 0.0197847 0.0197764 0.0197681 0.0197596 0.0197511 0.0197425 0.0197338 0.0197252 0.0197164 0.0197077 0.019699 0.0196902 0.0196815 0.0196728 0.0196641 0.0196555 0.0196469 0.0196383 0.0196299 0.0196215 0.0196131 0.0196049 0.0195968 0.0195887 0.0195808 0.019573 0.0195653 0.0195578 0.0195503 0.019543 0.0195359 0.0195288 0.0195219 0.0195151 0.0195085 0.019502 0.0194956 0.0194893 0.0194832 0.0194771 0.0194712 0.0194654 0.0194596 0.019454 0.0194485 0.0194431 0.0194377 0.0194324 0.0194272 0.0194221 0.019417 0.019412 0.019407 0.019402 0.019397 0.0193921 0.019387 0.0193819 0.0193768 0.0193715 0.0193662 0.0193607 0.0193551 0.0193493 0.0193434 0.0193373 0.0193311 0.0193247 0.0193181 0.0193113 0.0193044 0.0192973 0.01929 0.0192826 0.019275 0.0192672 0.0192594 0.0192514 0.0192434 0.0192353 0.0192272 0.019219 0.0192109 0.0192028 0.0191947 0.0191868 0.0191789 0.0191713 0.0191638 0.0191565 0.0191494 0.0191426 0.0191362 0.01913 0.0191241 0.0191186 0.0191135 0.0191088 0.0191045 0.0191006 0.0190971 0.019094 0.0190913 0.019089 0.0190872 0.0190857 0.0190847 0.0190839 0.0190836 0.0190836 0.0190838 0.0190844 0.0190852 0.0190862 0.0190874 0.0190888 0.0190903 0.019092 0.0190937 0.0190954 0.0190972 0.019099 0.0191008 0.0191024 0.019104 0.0191053 0.0191062 0.0191066 0.0191064 0.0191052 0.019103 0.0190999 0.0190959 0.019091 0.0190852 0.0190786 0.0190709 0.0190621 0.019052 0.0190402 0.0190266 0.0190107 0.0189921 0.0189704 0.0189449 0.0189151 0.0188799 0.0188385 0.0187896 0.0187319 0.018664 0.0185844 0.0184914 0.0183836 0.0182592 0.018117 0.0179555 0.0177732 0.0175686 0.0173403 0.0170868 0.0168064 0.0164979 0.0161599 0.0157916 0.0153926 0.0149634 0.014506 0.0140246 0.013524 0.0130066 0.0124708 0.0119097 0.0113063 0.0106431 0.00990272 0.00908425 0.00819487 0.00724545 0.00624685 0.00520565 0.00411763 0.00297581 0.00177088 0.00047799 -0.000956897 -0.00256647 -0.00448668 -0.00685248 -0.00961207 -0.0139845 -0.0196523 -0.0268566 0 0 0 0 0 0 0 0 0 0 0 0 0 0 0 0 0 0 0 0 0 0 0 0 0 0 0 0 0 0 0 0 0 0 0 0 0 0 0 0 0 0 0 0 0 0 0 0 0 0 0 0 0 0 0 0 0 0 0 0 0 0 0 0 0 0 0 0 0 0 0 0 0 0 0 0 0 0 0 0 0 0 0 0 0 0 0 0 0 0 0 0 0 0 0 0 0 0 0 0 0 0 0 0 0 0 0 0 0 0 0 0 0 0 0 0 0 0 0 0 0 0 0 0 0 0 0 0 0 0 0 0 0 0 0 0 0 0 0 0 0 0 0 0 0 0 0 0 0 0 0 0 0 0 0 0 0 0 0 0 0 0 0 0 0 0 0 0 0 0 0 0 0 0 0 0 0 0 0 0 0 0 0 0 -0.035683 -0.0302643 -0.0216633 -0.0117971 -4.33681e-19 