# vtk DataFile Version 2.0
iteration 675
ASCII

DATASET STRUCTURED_POINTS
DIMENSIONS 621 64 1
ORIGIN 0 0 0
SPACING 0.00161031 0.00161031 0.00161031

POINT_DATA 39744
SCALARS P float 1
LOOKUP_TABLE default
0 0 0 0 0 0 0 0 0 0 0 0 0 0 0 0 0 0 0 0 0 0 0 0 0 0 0 0 0 0 0 0 0 0 0 0 0 0 0 0 0 0 0 0 0 0 0 0 0 0 0 0 0 0 0 0 0 0 0 0 0 0 0 0 0 0 0 0 0 0 0 0 0 0 0 0 0 0 0 0 0 0 0 0 0 0 0 0 0 0 0 0 0 0 0 0 0 0 0 0 0 0 0 0 0 0 0 0 0 0 0 0 0 0 0 0 0 0 0 0 0 0 0 0 0 0 0 0 0 0 0 0 0 0 0 0 0 0 0 0 0 0 0 0 0 0 0 0 0 0 0 0 0 0 0 0 0 0 0 0 0 0 0 0 0 0 0 0 0 0 0 0 0 0 0 0 0 0 0 0 0 0 0 0 0 0 0 0 0 0 0 0 0 0 0 0 0 0 0 0 0 0 0 0 0 0 0 0 0 0 0 0 0 0 0 0 0 0 0 0 0 0 0 0 0 0 0 0 0 0 0 0 0 0 0 0 0 0 0 0 0 0 0 0 0 0 0 0 0 0 0 0 0 0 0 0 0 0 0 0 0 0 0 0 0 0 0 0 0 0 0 0 0 0 0 0 0 0 0 0 0 0 0 0 0 0 0 0 0 0 0 0 0 0 0 0 0 0 0 0 0 0 0 0 0 0 0 0 0 0 0 0 0 0 0 0 0 0 0 0 0 0 0 0 0 0 0 0 0 0 0 0 0 0 0 0 0 0 0 0 0 0 0 0 0 0 0 0 0 0 0 0 0 0 0 0 0 0 0 0 0 0 0 0 0 0 0 0 0 0 0 0 0 0 0 0 0 0 0 0 0 0 0 0 0 0 0 0 0 0 0 0 0 0 0 0 0 0 0 0 0 0 0 0 0 0 0 0 0 0 0 0 0 0 0 0 0 0 0 0 0 0 0 0 0 0 0 0 0 0 0 0 0 0 0 0 0 0 0 0 0 0 0 0 0 0 0 0 0 0 0 0 0 0 0 0 0 0 0 0 0 0 0 0 0 0 0 0 0 0 0 0 0 0 0 0 0 0 0 0 0 0 0 0 0 0 0 0 0 0 0 0 0 0 0 0 0 0 0 0 0 0 0 0 0 0 0 0 0 0 0 0 0 0 0 0 0 0 0 0 0 0 0 0 0 0 0 0 0 0 0 0 0 0 0 0 0 0 0 0 0 0 0 0 0 0 0 0 0 0 0 0 0 0 0 0 0 0 0 0 0 0 0 0 0 0 0 0 0 0 0 0 0 0 0 0 0 0 0 0 0 0 0 0 0 0 0 0 0 0 0 0 0 0 0 0 0 0 0 0 0 0 0 0 0 0 0 0 0 0 0 0 0 0 0 0 0 0 0 0 0 
0.02 0.02 0.02 0.02 0.02 0.02 0.02 0.02 0.02 0.02 0.02 0.02 0.02 0.02 0.02 0.02 0.0200001 0.0200001 0.0200001 0.0200001 0.0200001 0.0200001 0.0200001 0.0200002 0.0200002 0.0200002 0.0200003 0.0200003 0.0200004 0.0200004 0.0200005 0.0200005 0.0200006 0.0200007 0.0200008 0.020001 0.0200011 0.0200013 0.0200015 0.0200018 0.0200021 0.0200024 0.0200028 0.0200033 0.0200038 0.0200045 0.0200052 0.020006 0.0200069 0.020008 0.0200092 0.0200105 0.020012 0.0200136 0.0200154 0.0200174 0.0200195 0.0200219 0.0200244 0.0200271 0.02003 0.0200331 0.0200363 0.0200397 0.0200433 0.020047 0.0200508 0.0200547 0.0200587 0.0200628 0.0200668 0.0200707 0.0200746 0.0200782 0.0200817 0.0200848 0.0200876 0.0200898 0.0200915 0.0200925 0.0200927 0.0200919 0.0200902 0.0200872 0.020083 0.0200773 0.0200701 0.0200613 0.0200506 0.0200382 0.0200239 0.0200077 0.0199897 0.0199698 0.0199483 0.0199254 0.0199012 0.0198763 0.0198511 0.0198263 0.0198026 0.019781 0.0197626 0.0197485 0.0197401 0.0197386 0.019745 0.0197603 0.0197846 0.0198178 0.0198588 0.0199054 0.0199546 0.0200025 0.0200443 0.0200748 0.0200871 0.0200728 0.0200185 0.0199153 0.0197758 0.0196168 0.0194223 0.0191877 0.0189109 0.0185879 0.0182089 0.0177464 0.0171603 0.0165116 0.015802 0.0150362 0.0142771 0.0137344 0.0132948 0.0146525 0 0 0 0 0 0 0 0 0 0 0 0 0 0 0 0 0 0 0 0 0 0 0 0 0 0 0 0 0 0 0 0 0 0 0 0 0 0 0 0 0 0 0 0 0 0 0 0 0 0 0 0 0 0 0 0 0 0 0 0 0 0 0 0 0 0 0 0 0 0 0 0 0 0 0 0 0 0 0 0 0 0 0 0 0 0 0 0 0 0 0 0 0 0 0 0 0 0 0 0 0 0 0 0 0 0 0 0 0 0 0 0 0 0 0 0 0 0 0 0 0 0 0 0 0 0 0 0 0 0 0 0 0 0 0 0 0 0 0 0 0 0 0 0 0 0 0 0 0 0 0 0 0 0 0 0 0 0 0 0 0 0 0 0 0 0 0 0 0 0 0 0 0 0 0 0 0 0 0 0 0 0 0 0 0 0 0 0 0 0 0 0 0 0 0 0 0 0 0 0 0 0 0 0 0 0 0 0 0 0 0 0 0 0 0 0 0 0 0 0 0 0 0 0 0 0 0 0 0 0 0 0 0 0 0 0 0 0 0 0 0 0 0 0 0 0 0 0 0 0 0 0 0 0 0 0 0 0 0 0 0 0 0 0 0 0 0 0 0 0 0 0 0 0 0 0 0 0 0 0 0 0 0 0 0 0 0 0 0 0 0 0 0 0 0 0 0 0 0 0 0 0 0 0 0 0 0 0 0 0 0 0 0 0 0 0 0 0 0 0 0 0 0 0 0 0 0 0 0 0 0 0 0 0 0 0 0 0 0 0 0 0 0 0 0 0 0 0 0 0 0 0 0 0 0 0 0 0 0 0 0 0 0 0 0 0 0 0 0 0 0 0 0 0 0 0 0 0 0 0 0 0 0 0 0 0 0 0 0 0 0 0 0 0 0 0 0 0 0 0 0 0 0 0 0 0 0 0 0 0 0 0 0 0 0 0 0 0 0 0 0 0 0 0 0 0 0 0 0 0 0 0 0 0 0 0 0 0 0 0 0 0 0 0 0 0 0 0 0 0 0 0 0 0 0 0 0 0 0 0 0 0 0 0 0 0 0 0 0 0 0 0 0 0 0 0 0 0 0 0 0 0 0 0 0 
0.02 0.02 0.02 0.02 0.02 0.02 0.02 0.02 0.02 0.02 0.02 0.02 0.02 0.02 0.02 0.02 0.0200001 0.0200001 0.0200001 0.0200001 0.0200001 0.0200001 0.0200001 0.0200002 0.0200002 0.0200002 0.0200003 0.0200003 0.0200003 0.0200004 0.0200005 0.0200005 0.0200006 0.0200007 0.0200008 0.0200009 0.0200011 0.0200013 0.0200015 0.0200017 0.020002 0.0200023 0.0200027 0.0200031 0.0200037 0.0200043 0.0200049 0.0200057 0.0200066 0.0200076 0.0200088 0.0200101 0.0200115 0.0200131 0.0200148 0.0200167 0.0200188 0.0200211 0.0200235 0.0200261 0.0200289 0.0200319 0.020035 0.0200383 0.0200418 0.0200454 0.0200491 0.0200529 0.0200567 0.0200606 0.0200645 0.0200683 0.020072 0.0200755 0.0200788 0.0200818 0.0200844 0.0200865 0.0200881 0.0200889 0.020089 0.0200882 0.0200863 0.0200833 0.020079 0.0200734 0.0200662 0.0200573 0.0200468 0.0200345 0.0200203 0.0200043 0.0199864 0.0199668 0.0199455 0.0199228 0.019899 0.0198744 0.0198495 0.019825 0.0198016 0.0197803 0.0197621 0.0197482 0.0197399 0.0197384 0.0197447 0.0197598 0.0197838 0.0198166 0.019857 0.019903 0.0199515 0.0199987 0.0200395 0.0200684 0.020078 0.0200605 0.0200089 0.0199165 0.019793 0.0196367 0.0194428 0.0192068 0.0189247 0.0185903 0.0181932 0.0177186 0.0171544 0.0165238 0.0158294 0.0151007 0.0144043 0.0138762 0.0128715 0.0128144 0.0118343 0.0105612 0.00927956 0.00798027 0.00810077 0 0 0 0 0 0 0 0 0 0 0 0 0 0 0 0 0 0 0 0 0 0 0 0 0 0 0 0 0 0 0 0 0 0 0 0 0 0 0 0 0 0 0 0 0 0 0 0 0 0 0 0 0 0 0 0 0 0 0 0 0 0 0 0 0 0 0 0 0 0 0 0 0 0 0 0 0 0 0 0 0 0 0 0 0 0 0 0 0 0 0 0 0 0 0 0 0 0 0 0 0 0 0 0 0 0 0 0 0 0 0 0 0 0 0 0 0 0 0 0 0 0 0 0 0 0 0 0 0 0 0 0 0 0 0 0 0 0 0 0 0 0 0 0 0 0 0 0 0 0 0 0 0 0 0 0 0 0 0 0 0 0 0 0 0 0 0 0 0 0 0 0 0 0 0 0 0 0 0 0 0 0 0 0 0 0 0 0 0 0 0 0 0 0 0 0 0 0 0 0 0 0 0 0 0 0 0 0 0 0 0 0 0 0 0 0 0 0 0 0 0 0 0 0 0 0 0 0 0 0 0 0 0 0 0 0 0 0 0 0 0 0 0 0 0 0 0 0 0 0 0 0 0 0 0 0 0 0 0 0 0 0 0 0 0 0 0 0 0 0 0 0 0 0 0 0 0 0 0 0 0 0 0 0 0 0 0 0 0 0 0 0 0 0 0 0 0 0 0 0 0 0 0 0 0 0 0 0 0 0 0 0 0 0 0 0 0 0 0 0 0 0 0 0 0 0 0 0 0 0 0 0 0 0 0 0 0 0 0 0 0 0 0 0 0 0 0 0 0 0 0 0 0 0 0 0 0 0 0 0 0 0 0 0 0 0 0 0 0 0 0 0 0 0 0 0 0 0 0 0 0 0 0 0 0 0 0 0 0 0 0 0 0 0 0 0 0 0 0 0 0 0 0 0 0 0 0 0 0 0 0 0 0 0 0 0 0 0 0 0 0 0 0 0 0 0 0 0 0 0 0 0 0 0 0 0 0 0 0 0 0 0 0 0 0 0 0 0 0 0 0 0 0 0 0 0 0 0 0 0 0 0 0 0 0 0 0 0 0 0 0 0 0 0 0 0 0 0 0 0 
0.02 0.02 0.02 0.02 0.02 0.02 0.02 0.02 0.02 0.02 0.02 0.02 0.02 0.02 0.02 0.02 0.0200001 0.0200001 0.0200001 0.0200001 0.0200001 0.0200001 0.0200001 0.0200002 0.0200002 0.0200002 0.0200002 0.0200003 0.0200003 0.0200004 0.0200004 0.0200005 0.0200006 0.0200006 0.0200008 0.0200009 0.020001 0.0200012 0.0200014 0.0200016 0.0200019 0.0200022 0.0200025 0.020003 0.0200035 0.020004 0.0200047 0.0200054 0.0200063 0.0200072 0.0200083 0.0200096 0.0200109 0.0200124 0.0200141 0.0200159 0.0200179 0.0200201 0.0200224 0.0200249 0.0200276 0.0200304 0.0200334 0.0200366 0.0200399 0.0200433 0.0200468 0.0200504 0.020054 0.0200577 0.0200614 0.0200649 0.0200684 0.0200717 0.0200747 0.0200775 0.0200798 0.0200817 0.020083 0.0200837 0.0200835 0.0200825 0.0200804 0.0200772 0.0200728 0.020067 0.0200597 0.0200508 0.0200402 0.0200279 0.0200137 0.0199978 0.01998 0.0199606 0.0199395 0.0199171 0.0198935 0.0198692 0.0198447 0.0198205 0.0197975 0.0197766 0.0197587 0.0197451 0.019737 0.0197356 0.0197421 0.019757 0.0197809 0.0198133 0.0198533 0.0198987 0.0199465 0.0199927 0.020032 0.0200586 0.0200656 0.0200464 0.0199967 0.019914 0.0197979 0.0196454 0.0194525 0.0192147 0.0189273 0.0185835 0.0181758 0.0176985 0.0171504 0.0165461 0.0158913 0.0152164 0.0145714 0.0139983 0.0134446 0.0125919 0.0115307 0.0104187 0.00916314 0.00793189 0.00696581 0.00573093 0.00422946 0.00309458 0.00104255 0 0 0 0 0 0 0 0 0 0 0 0 0 0 0 0 0 0 0 0 0 0 0 0 0 0 0 0 0 0 0 0 0 0 0 0 0 0 0 0 0 0 0 0 0 0 0 0 0 0 0 0 0 0 0 0 0 0 0 0 0 0 0 0 0 0 0 0 0 0 0 0 0 0 0 0 0 0 0 0 0 0 0 0 0 0 0 0 0 0 0 0 0 0 0 0 0 0 0 0 0 0 0 0 0 0 0 0 0 0 0 0 0 0 0 0 0 0 0 0 0 0 0 0 0 0 0 0 0 0 0 0 0 0 0 0 0 0 0 0 0 0 0 0 0 0 0 0 0 0 0 0 0 0 0 0 0 0 0 0 0 0 0 0 0 0 0 0 0 0 0 0 0 0 0 0 0 0 0 0 0 0 0 0 0 0 0 0 0 0 0 0 0 0 0 0 0 0 0 0 0 0 0 0 0 0 0 0 0 0 0 0 0 0 0 0 0 0 0 0 0 0 0 0 0 0 0 0 0 0 0 0 0 0 0 0 0 0 0 0 0 0 0 0 0 0 0 0 0 0 0 0 0 0 0 0 0 0 0 0 0 0 0 0 0 0 0 0 0 0 0 0 0 0 0 0 0 0 0 0 0 0 0 0 0 0 0 0 0 0 0 0 0 0 0 0 0 0 0 0 0 0 0 0 0 0 0 0 0 0 0 0 0 0 0 0 0 0 0 0 0 0 0 0 0 0 0 0 0 0 0 0 0 0 0 0 0 0 0 0 0 0 0 0 0 0 0 0 0 0 0 0 0 0 0 0 0 0 0 0 0 0 0 0 0 0 0 0 0 0 0 0 0 0 0 0 0 0 0 0 0 0 0 0 0 0 0 0 0 0 0 0 0 0 0 0 0 0 0 0 0 0 0 0 0 0 0 0 0 0 0 0 0 0 0 0 0 0 0 0 0 0 0 0 0 0 0 0 0 0 0 0 0 0 0 0 0 0 0 0 0 0 0 0 0 0 0 0 0 0 0 0 0 0 0 0 0 0 0 0 0 0 0 0 0 0 0 0 0 0 0 0 0 0 0 -5.42101e-20 
0.02 0.02 0.02 0.02 0.02 0.02 0.02 0.02 0.02 0.02 0.02 0.02 0.02 0.02 0.02 0.02 0.02 0.0200001 0.0200001 0.0200001 0.0200001 0.0200001 0.0200001 0.0200001 0.0200002 0.0200002 0.0200002 0.0200003 0.0200003 0.0200003 0.0200004 0.0200004 0.0200005 0.0200006 0.0200007 0.0200008 0.0200009 0.0200011 0.0200012 0.0200015 0.0200017 0.020002 0.0200023 0.0200027 0.0200032 0.0200037 0.0200043 0.020005 0.0200058 0.0200067 0.0200078 0.0200089 0.0200102 0.0200116 0.0200132 0.0200149 0.0200168 0.0200188 0.020021 0.0200233 0.0200258 0.0200285 0.0200313 0.0200343 0.0200373 0.0200405 0.0200438 0.0200471 0.0200505 0.0200538 0.0200572 0.0200604 0.0200636 0.0200665 0.0200692 0.0200716 0.0200736 0.0200752 0.0200761 0.0200764 0.0200759 0.0200745 0.0200721 0.0200687 0.0200639 0.0200579 0.0200504 0.0200413 0.0200306 0.0200182 0.0200041 0.0199882 0.0199705 0.0199512 0.0199304 0.0199082 0.019885 0.0198611 0.019837 0.0198133 0.0197907 0.0197702 0.0197528 0.0197396 0.0197319 0.0197308 0.0197374 0.0197524 0.0197762 0.0198084 0.0198479 0.0198928 0.0199399 0.0199851 0.0200232 0.0200482 0.0200542 0.020036 0.0199894 0.0199119 0.0197998 0.0196492 0.0194555 0.0192144 0.0189213 0.0185714 0.0181612 0.0176915 0.0171667 0.0165959 0.0159906 0.0153541 0.0147297 0.0141034 0.0134111 0.0125148 0.0114756 0.0103404 0.00914723 0.00796302 0.00680001 0.00549819 0.0039955 0.00252323 0.000684441 -0.00154021 -0.00361178 0 0 0 0 0 0 0 0 0 0 0 0 0 0 0 0 0 0 0 0 0 0 0 0 0 0 0 0 0 0 0 0 0 0 0 0 0 0 0 0 0 0 0 0 0 0 0 0 0 0 0 0 0 0 0 0 0 0 0 0 0 0 0 0 0 0 0 0 0 0 0 0 0 0 0 0 0 0 0 0 0 0 0 0 0 0 0 0 0 0 0 0 0 0 0 0 0 0 0 0 0 0 0 0 0 0 0 0 0 0 0 0 0 0 0 0 0 0 0 0 0 0 0 0 0 0 0 0 0 0 0 0 0 0 0 0 0 0 0 0 0 0 0 0 0 0 0 0 0 0 0 0 0 0 0 0 0 0 0 0 0 0 0 0 0 0 0 0 0 0 0 0 0 0 0 0 0 0 0 0 0 0 0 0 0 0 0 0 0 0 0 0 0 0 0 0 0 0 0 0 0 0 0 0 0 0 0 0 0 0 0 0 0 0 0 0 0 0 0 0 0 0 0 0 0 0 0 0 0 0 0 0 0 0 0 0 0 0 0 0 0 0 0 0 0 0 0 0 0 0 0 0 0 0 0 0 0 0 0 0 0 0 0 0 0 0 0 0 0 0 0 0 0 0 0 0 0 0 0 0 0 0 0 0 0 0 0 0 0 0 0 0 0 0 0 0 0 0 0 0 0 0 0 0 0 0 0 0 0 0 0 0 0 0 0 0 0 0 0 0 0 0 0 0 0 0 0 0 0 0 0 0 0 0 0 0 0 0 0 0 0 0 0 0 0 0 0 0 0 0 0 0 0 0 0 0 0 0 0 0 0 0 0 0 0 0 0 0 0 0 0 0 0 0 0 0 0 0 0 0 0 0 0 0 0 0 0 0 0 0 0 0 0 0 0 0 0 0 0 0 0 0 0 0 0 0 0 0 0 0 0 0 0 0 0 0 0 0 0 0 0 0 0 0 0 0 0 0 0 0 0 0 0 0 0 0 0 0 0 0 0 0 0 0 0 0 0 0 0 0 0 0 0 0 0 0 0 0 0 0 0 0 0 0 0 0 0 0 0 0 0 0 -0.00413144 -1.0842e-19 
0.02 0.02 0.02 0.02 0.02 0.02 0.02 0.02 0.02 0.02 0.02 0.02 0.02 0.02 0.02 0.02 0.02 0.0200001 0.0200001 0.0200001 0.0200001 0.0200001 0.0200001 0.0200001 0.0200002 0.0200002 0.0200002 0.0200002 0.0200003 0.0200003 0.0200003 0.0200004 0.0200005 0.0200005 0.0200006 0.0200007 0.0200008 0.0200009 0.0200011 0.0200013 0.0200015 0.0200018 0.0200021 0.0200024 0.0200028 0.0200033 0.0200039 0.0200045 0.0200053 0.0200061 0.020007 0.0200081 0.0200093 0.0200106 0.020012 0.0200136 0.0200153 0.0200172 0.0200192 0.0200213 0.0200236 0.0200261 0.0200286 0.0200313 0.0200341 0.020037 0.0200399 0.0200429 0.020046 0.020049 0.0200519 0.0200548 0.0200575 0.02006 0.0200623 0.0200642 0.0200657 0.0200668 0.0200672 0.0200671 0.0200661 0.0200643 0.0200615 0.0200576 0.0200525 0.0200461 0.0200383 0.020029 0.0200181 0.0200055 0.0199913 0.0199754 0.0199578 0.0199387 0.0199181 0.0198962 0.0198734 0.0198499 0.0198263 0.0198031 0.0197811 0.0197612 0.0197444 0.0197318 0.0197246 0.0197239 0.0197309 0.0197461 0.0197699 0.019802 0.0198413 0.0198858 0.0199324 0.0199769 0.0200144 0.0200391 0.0200457 0.0200293 0.0199858 0.0199111 0.0198006 0.0196498 0.0194542 0.0192099 0.0189138 0.0185639 0.0181603 0.0177073 0.0172113 0.0166786 0.0161162 0.0155208 0.0148827 0.0142023 0.0134072 0.0124823 0.0114398 0.0103166 0.00915352 0.00792592 0.00672053 0.00535148 0.00385936 0.00227291 0.000523127 -0.00160171 -0.00400594 -0.00725403 -0.0106637 0 0 0 0 0 0 0 0 0 0 0 0 0 0 0 0 0 0 0 0 0 0 0 0 0 0 0 0 0 0 0 0 0 0 0 0 0 0 0 0 0 0 0 0 0 0 0 0 0 0 0 0 0 0 0 0 0 0 0 0 0 0 0 0 0 0 0 0 0 0 0 0 0 0 0 0 0 0 0 0 0 0 0 0 0 0 0 0 0 0 0 0 0 0 0 0 0 0 0 0 0 0 0 0 0 0 0 0 0 0 0 0 0 0 0 0 0 0 0 0 0 0 0 0 0 0 0 0 0 0 0 0 0 0 0 0 0 0 0 0 0 0 0 0 0 0 0 0 0 0 0 0 0 0 0 0 0 0 0 0 0 0 0 0 0 0 0 0 0 0 0 0 0 0 0 0 0 0 0 0 0 0 0 0 0 0 0 0 0 0 0 0 0 0 0 0 0 0 0 0 0 0 0 0 0 0 0 0 0 0 0 0 0 0 0 0 0 0 0 0 0 0 0 0 0 0 0 0 0 0 0 0 0 0 0 0 0 0 0 0 0 0 0 0 0 0 0 0 0 0 0 0 0 0 0 0 0 0 0 0 0 0 0 0 0 0 0 0 0 0 0 0 0 0 0 0 0 0 0 0 0 0 0 0 0 0 0 0 0 0 0 0 0 0 0 0 0 0 0 0 0 0 0 0 0 0 0 0 0 0 0 0 0 0 0 0 0 0 0 0 0 0 0 0 0 0 0 0 0 0 0 0 0 0 0 0 0 0 0 0 0 0 0 0 0 0 0 0 0 0 0 0 0 0 0 0 0 0 0 0 0 0 0 0 0 0 0 0 0 0 0 0 0 0 0 0 0 0 0 0 0 0 0 0 0 0 0 0 0 0 0 0 0 0 0 0 0 0 0 0 0 0 0 0 0 0 0 0 0 0 0 0 0 0 0 0 0 0 0 0 0 0 0 0 0 0 0 0 0 0 0 0 0 0 0 0 0 0 0 0 0 0 0 0 0 0 0 0 0 0 0 0 0 0 0 0 0 0 0 0 0 0 0 0 0 0 0 0 0 -0.0133648 -0.00696361 -1.73472e-18 
0.02 0.02 0.02 0.02 0.02 0.02 0.02 0.02 0.02 0.02 0.02 0.02 0.02 0.02 0.02 0.02 0.02 0.02 0.0200001 0.0200001 0.0200001 0.0200001 0.0200001 0.0200001 0.0200001 0.0200002 0.0200002 0.0200002 0.0200002 0.0200003 0.0200003 0.0200003 0.0200004 0.0200004 0.0200005 0.0200006 0.0200007 0.0200008 0.0200009 0.0200011 0.0200013 0.0200015 0.0200018 0.0200021 0.0200024 0.0200029 0.0200034 0.0200039 0.0200046 0.0200053 0.0200062 0.0200071 0.0200082 0.0200093 0.0200106 0.020012 0.0200136 0.0200152 0.020017 0.020019 0.020021 0.0200232 0.0200254 0.0200278 0.0200303 0.0200328 0.0200354 0.0200379 0.0200405 0.0200431 0.0200456 0.0200479 0.0200501 0.0200521 0.0200538 0.0200552 0.0200562 0.0200566 0.0200565 0.0200558 0.0200542 0.0200518 0.0200485 0.0200441 0.0200385 0.0200317 0.0200235 0.0200138 0.0200026 0.0199899 0.0199755 0.0199595 0.019942 0.019923 0.0199026 0.019881 0.0198586 0.0198356 0.0198126 0.01979 0.0197687 0.0197495 0.0197334 0.0197216 0.019715 0.019715 0.0197224 0.019738 0.0197621 0.0197944 0.0198337 0.019878 0.0199244 0.0199689 0.0200065 0.0200319 0.02004 0.0200257 0.0199843 0.0199111 0.0198011 0.0196497 0.0194529 0.0192079 0.0189134 0.0185701 0.018181 0.0177511 0.0172872 0.016791 0.0162578 0.0156793 0.0150237 0.0142806 0.0134431 0.0124885 0.0114373 0.0103221 0.00916345 0.00795293 0.00665852 0.00525806 0.00374025 0.00208152 0.00022499 -0.00183752 -0.00416441 -0.00715016 -0.0107946 -0.0155561 -0.0213375 0 0 0 0 0 0 0 0 0 0 0 0 0 0 0 0 0 0 0 0 0 0 0 0 0 0 0 0 0 0 0 0 0 0 0 0 0 0 0 0 0 0 0 0 0 0 0 0 0 0 0 0 0 0 0 0 0 0 0 0 0 0 0 0 0 0 0 0 0 0 0 0 0 0 0 0 0 0 0 0 0 0 0 0 0 0 0 0 0 0 0 0 0 0 0 0 0 0 0 0 0 0 0 0 0 0 0 0 0 0 0 0 0 0 0 0 0 0 0 0 0 0 0 0 0 0 0 0 0 0 0 0 0 0 0 0 0 0 0 0 0 0 0 0 0 0 0 0 0 0 0 0 0 0 0 0 0 0 0 0 0 0 0 0 0 0 0 0 0 0 0 0 0 0 0 0 0 0 0 0 0 0 0 0 0 0 0 0 0 0 0 0 0 0 0 0 0 0 0 0 0 0 0 0 0 0 0 0 0 0 0 0 0 0 0 0 0 0 0 0 0 0 0 0 0 0 0 0 0 0 0 0 0 0 0 0 0 0 0 0 0 0 0 0 0 0 0 0 0 0 0 0 0 0 0 0 0 0 0 0 0 0 0 0 0 0 0 0 0 0 0 0 0 0 0 0 0 0 0 0 0 0 0 0 0 0 0 0 0 0 0 0 0 0 0 0 0 0 0 0 0 0 0 0 0 0 0 0 0 0 0 0 0 0 0 0 0 0 0 0 0 0 0 0 0 0 0 0 0 0 0 0 0 0 0 0 0 0 0 0 0 0 0 0 0 0 0 0 0 0 0 0 0 0 0 0 0 0 0 0 0 0 0 0 0 0 0 0 0 0 0 0 0 0 0 0 0 0 0 0 0 0 0 0 0 0 0 0 0 0 0 0 0 0 0 0 0 0 0 0 0 0 0 0 0 0 0 0 0 0 0 0 0 0 0 0 0 0 0 0 0 0 0 0 0 0 0 0 0 0 0 0 0 0 0 0 0 0 0 0 0 0 0 0 0 0 0 0 0 0 0 0 0 0 0 0 0 0 0 0 0 0 0 0 0 -0.0289617 -0.0242338 -0.0173163 -0.00942602 1.30104e-18 
0.02 0.02 0.02 0.02 0.02 0.02 0.02 0.02 0.02 0.02 0.02 0.02 0.02 0.02 0.02 0.02 0.02 0.02 0.02 0.0200001 0.0200001 0.0200001 0.0200001 0.0200001 0.0200001 0.0200001 0.0200001 0.0200002 0.0200002 0.0200002 0.0200002 0.0200003 0.0200003 0.0200003 0.0200004 0.0200005 0.0200005 0.0200006 0.0200007 0.0200009 0.020001 0.0200012 0.0200014 0.0200017 0.020002 0.0200023 0.0200028 0.0200032 0.0200038 0.0200044 0.0200051 0.020006 0.0200069 0.0200079 0.020009 0.0200102 0.0200115 0.020013 0.0200145 0.0200162 0.0200179 0.0200198 0.0200217 0.0200237 0.0200258 0.0200279 0.02003 0.0200321 0.0200342 0.0200362 0.0200382 0.0200399 0.0200416 0.0200429 0.020044 0.0200447 0.020045 0.0200448 0.020044 0.0200425 0.0200403 0.0200373 0.0200333 0.0200283 0.0200221 0.0200147 0.020006 0.0199959 0.0199843 0.0199713 0.0199567 0.0199407 0.0199231 0.0199042 0.019884 0.0198627 0.0198407 0.0198182 0.0197957 0.0197739 0.0197534 0.019735 0.0197197 0.0197087 0.019703 0.0197038 0.019712 0.0197283 0.0197529 0.0197856 0.0198252 0.0198698 0.0199165 0.0199613 0.0199998 0.0200266 0.0200364 0.0200242 0.0199846 0.0199126 0.0198034 0.0196527 0.0194574 0.019216 0.0189293 0.0185996 0.0182308 0.0178268 0.0173904 0.016919 0.0164016 0.0158203 0.0151594 0.0143905 0.0135119 0.0125349 0.0114793 0.0103588 0.00919128 0.00795227 0.00663397 0.00520823 0.00363939 0.00190822 -4.8224e-05 -0.00223597 -0.00469748 -0.00745466 -0.0109738 -0.0152137 -0.0218531 -0.0304944 0 0 0 0 0 0 0 0 0 0 0 0 0 0 0 0 0 0 0 0 0 0 0 0 0 0 0 0 0 0 0 0 0 0 0 0 0 0 0 0 0 0 0 0 0 0 0 0 0 0 0 0 0 0 0 0 0 0 0 0 0 0 0 0 0 0 0 0 0 0 0 0 0 0 0 0 0 0 0 0 0 0 0 0 0 0 0 0 0 0 0 0 0 0 0 0 0 0 0 0 0 0 0 0 0 0 0 0 0 0 0 0 0 0 0 0 0 0 0 0 0 0 0 0 0 0 0 0 0 0 0 0 0 0 0 0 0 0 0 0 0 0 0 0 0 0 0 0 0 0 0 0 0 0 0 0 0 0 0 0 0 0 0 0 0 0 0 0 0 0 0 0 0 0 0 0 0 0 0 0 0 0 0 0 0 0 0 0 0 0 0 0 0 0 0 0 0 0 0 0 0 0 0 0 0 0 0 0 0 0 0 0 0 0 0 0 0 0 0 0 0 0 0 0 0 0 0 0 0 0 0 0 0 0 0 0 0 0 0 0 0 0 0 0 0 0 0 0 0 0 0 0 0 0 0 0 0 0 0 0 0 0 0 0 0 0 0 0 0 0 0 0 0 0 0 0 0 0 0 0 0 0 0 0 0 0 0 0 0 0 0 0 0 0 0 0 0 0 0 0 0 0 0 0 0 0 0 0 0 0 0 0 0 0 0 0 0 0 0 0 0 0 0 0 0 0 0 0 0 0 0 0 0 0 0 0 0 0 0 0 0 0 0 0 0 0 0 0 0 0 0 0 0 0 0 0 0 0 0 0 0 0 0 0 0 0 0 0 0 0 0 0 0 0 0 0 0 0 0 0 0 0 0 0 0 0 0 0 0 0 0 0 0 0 0 0 0 0 0 0 0 0 0 -0.0409123 -0.0440846 -0.0451646 -0.0456802 -0.045977 -0.046156 -0.0462669 -0.0463266 -0.0463446 -0.0463264 -0.0462759 -0.0461963 -0.0460908 -0.0459631 -0.045817 -0.0456569 -0.0454876 -0.0453139 -0.0451402 -0.0449708 -0.0448087 -0.0446563 -0.0445145 -0.0443834 -0.0442618 -0.044148 -0.0440399 -0.0439351 -0.0438319 -0.043729 -0.0436259 -0.0435225 -0.0434193 -0.0433169 -0.0432163 -0.0431182 -0.0430234 -0.0429325 -0.0428461 -0.0427646 -0.0426883 -0.0426175 -0.0425521 -0.0424922 -0.0424375 -0.0423877 -0.0423421 -0.0422998 -0.0422597 -0.0422202 -0.042179 -0.0421331 -0.0420776 -0.0420035 -0.0418892 -0.0416495 -0.0410819 -0.040222 -0.039118 -0.0374935 -0.0349401 -0.0308984 -0.0255356 -0.018875 -0.0107185 -2.81893e-18 
0.02 0.02 0.02 0.02 0.02 0.02 0.02 0.02 0.02 0.02 0.02 0.02 0.02 0.02 0.02 0.02 0.02 0.02 0.02 0.02 0.0200001 0.0200001 0.0200001 0.0200001 0.0200001 0.0200001 0.0200001 0.0200001 0.0200001 0.0200001 0.0200002 0.0200002 0.0200002 0.0200002 0.0200003 0.0200003 0.0200004 0.0200004 0.0200005 0.0200006 0.0200007 0.0200008 0.020001 0.0200012 0.0200014 0.0200017 0.0200021 0.0200024 0.0200029 0.0200034 0.020004 0.0200047 0.0200054 0.0200062 0.0200071 0.0200081 0.0200092 0.0200104 0.0200117 0.020013 0.0200144 0.0200159 0.0200175 0.0200191 0.0200207 0.0200223 0.0200239 0.0200255 0.020027 0.0200285 0.0200298 0.0200309 0.0200318 0.0200325 0.0200329 0.0200328 0.0200324 0.0200314 0.0200298 0.0200276 0.0200246 0.0200208 0.020016 0.0200102 0.0200034 0.0199953 0.019986 0.0199754 0.0199634 0.0199499 0.0199351 0.0199188 0.0199012 0.0198823 0.0198622 0.0198412 0.0198196 0.0197976 0.0197758 0.0197547 0.019735 0.0197175 0.0197032 0.0196932 0.0196885 0.0196903 0.0196995 0.0197167 0.0197422 0.0197756 0.0198159 0.0198612 0.0199087 0.0199546 0.0199943 0.0200229 0.0200349 0.0200249 0.0199875 0.0199177 0.0198109 0.0196636 0.0194738 0.0192412 0.0189676 0.0186559 0.0183094 0.0179296 0.0175148 0.0170584 0.0165457 0.015957 0.0152727 0.0144873 0.0135995 0.0126202 0.0115634 0.0104404 0.00925142 0.00799216 0.00664298 0.00517782 0.00356306 0.00175397 -0.000282416 -0.00257422 -0.00515814 -0.0081156 -0.0115338 -0.0151989 -0.0204965 -0.0286959 -0.0397732 0 0 0 0 0 0 0 0 0 0 0 0 0 0 0 0 0 0 0 0 0 0 0 0 0 0 0 0 0 0 0 0 0 0 0 0 0 0 0 0 0 0 0 0 0 0 0 0 0 0 0 0 0 0 0 0 0 0 0 0 0 0 0 0 0 0 0 0 0 0 0 0 0 0 0 -0.0502502 -0.0576913 -0.0628235 -0.0657321 -0.0660702 -0.0660257 -0.0671617 -0.076676 0 0 0 0 0 0 0 0 0 0 0 0 0 0 0 0 0 0 0 0 0 0 0 0 0 0 0 0 0 0 0 0 0 0 0 0 0 0 0 0 0 0 0 0 0 0 0 0 0 0 0 0 0 0 0 0 0 0 0 0 0 0 0 0 0 0 0 0 0 0 0 0 0 0 0 0 0 0 0 0 0 0 0 0 0 0 0 0 0 0 0 0 0 0 0 0 0 0 0 0 0 0 0 0 0 0 0 0 0 0 0 0 0 0 0 0 0 0 0 0 0 0 0 0 0 0 0 0 0 0 0 0 0 0 0 0 0 0 0 0 0 0 0 0 0 0 0 0 0 0 -0.0509526 -0.05318 -0.0561197 -0.0592584 -0.0616494 -0.0630551 -0.0636733 -0.0637677 -0.0635835 -0.0631996 -0.0626642 -0.0620664 -0.061454 -0.0608343 -0.0600275 -0.0588789 -0.0578916 -0.0569943 -0.0562162 -0.0559569 -0.0612215 0 0 0 0 0 0 0 0 0 0 0 0 0 0 0 0 0 0 0 0 0 -0.0447037 -0.0482932 -0.0497227 -0.0503048 -0.0505121 -0.0504004 -0.0498629 -0.0495204 -0.0492243 -0.0489048 -0.0485586 -0.0481978 -0.047838 -0.0474954 -0.0471851 -0.0469224 -0.0467221 -0.0465973 -0.0465543 -0.0465807 -0.0466173 -0.0465343 -0.0461719 -0.0460016 -0.0460101 -0.0462448 -0.0472608 -0.0521633 -0.0499473 0 0 0 0 0 0 0 0 0 0 0 0 0 0 0 0 0 0 0 0 0 0 0 0 0 0 0 0 0 0 0 0 0 0 0 0 0 0 0 0 0 0 0 0 0 0 -0.0477132 -0.0511939 -0.052173 -0.0522873 -0.0521071 -0.051818 -0.0514933 -0.0511355 -0.0507118 -0.0501607 -0.0495524 -0.0490836 -0.0486692 -0.04828 -0.0479074 -0.0475501 -0.0472102 -0.0468906 -0.0465937 -0.0463212 -0.0460738 -0.0458516 -0.045654 -0.0454801 -0.0453286 -0.0451983 -0.045088 -0.0449967 -0.0449232 -0.0448665 -0.0448258 -0.0448 -0.0447885 -0.0447904 -0.0448051 -0.0448321 -0.044871 -0.0449219 -0.0449851 -0.0450607 -0.0451487 -0.0452483 -0.0453583 -0.0454768 -0.0456025 -0.0457332 -0.0458595 -0.0459497 -0.0459309 -0.0456844 -0.0450559 -0.0440387 -0.0438525 -0.0444898 -0.0452257 -0.0456775 -0.04597 -0.0461508 -0.0462641 -0.0463246 -0.0463425 -0.0463233 -0.0462714 -0.0461903 -0.0460837 -0.0459551 -0.0458089 -0.0456493 -0.0454811 -0.0453089 -0.0451371 -0.0449696 -0.0448094 -0.0446586 -0.0445182 -0.044388 -0.0442671 -0.0441538 -0.0440459 -0.0439414 -0.0438385 -0.043736 -0.0436333 -0.0435303 -0.0434275 -0.0433255 -0.043225 -0.043127 -0.0430322 -0.0429412 -0.0428545 -0.0427727 -0.042696 -0.0426247 -0.0425589 -0.0424985 -0.0424433 -0.042393 -0.042347 -0.0423046 -0.0422646 -0.0422257 -0.0421858 -0.0421417 -0.0420882 -0.0420138 -0.0418855 -0.0416278 -0.0411354 -0.0403711 -0.0392647 -0.0375729 -0.0349673 -0.0311513 -0.0261173 -0.0197574 -0.0114866 -4.33681e-19 
0.02 0.02 0.02 0.02 0.02 0.02 0.02 0.02 0.02 0.02 0.02 0.02 0.02 0.02 0.02 0.02 0.02 0.02 0.02 0.02 0.02 0.02 0.02 0.0200001 0.0200001 0.0200001 0.0200001 0.0200001 0.0200001 0.0200001 0.0200001 0.0200001 0.0200001 0.0200001 0.0200001 0.0200001 0.0200002 0.0200002 0.0200002 0.0200003 0.0200003 0.0200004 0.0200005 0.0200007 0.0200008 0.020001 0.0200013 0.0200015 0.0200019 0.0200023 0.0200027 0.0200032 0.0200037 0.0200044 0.0200051 0.0200058 0.0200067 0.0200075 0.0200085 0.0200095 0.0200105 0.0200116 0.0200127 0.0200139 0.020015 0.0200161 0.0200171 0.0200181 0.020019 0.0200198 0.0200204 0.0200209 0.020021 0.0200209 0.0200205 0.0200196 0.0200183 0.0200165 0.020014 0.0200109 0.0200071 0.0200024 0.0199968 0.0199902 0.0199825 0.0199737 0.0199637 0.0199525 0.0199399 0.019926 0.0199108 0.0198942 0.0198764 0.0198575 0.0198375 0.0198167 0.0197954 0.019774 0.0197527 0.0197324 0.0197135 0.019697 0.0196838 0.0196749 0.0196714 0.0196744 0.0196848 0.0197032 0.0197298 0.0197644 0.0198059 0.0198524 0.0199011 0.0199485 0.0199901 0.020021 0.0200356 0.0200286 0.0199946 0.0199287 0.019827 0.0196868 0.019507 0.019288 0.0190319 0.0187411 0.0184171 0.0180584 0.0176593 0.0172091 0.016694 0.0160976 0.0154069 0.014615 0.0137247 0.0127458 0.0116898 0.0105612 0.00936046 0.00807613 0.00669063 0.00517776 0.00350191 0.00162525 -0.000496994 -0.00288812 -0.00558784 -0.00865355 -0.0121729 -0.0160829 -0.0199743 -0.027021 -0.035219 -0.0506229 0 0 0 0 0 0 0 0 0 0 0 0 0 0 0 0 0 0 0 0 0 0 0 0 0 0 0 0 0 0 0 0 0 0 0 0 0 0 -0.0581957 -0.0604955 -0.0597856 -0.0633593 -0.0660803 -0.0672225 -0.0671522 -0.066088 -0.0655173 -0.0747667 0 0 0 0 0 0 0 0 0 0 0 0 0 0 0 0 0 0 0 0 0 0 0 0 -0.0495448 -0.0496599 -0.0540291 -0.0589038 -0.0626324 -0.0650604 -0.0656512 -0.0657197 -0.0665563 -0.0685618 -0.0684992 -0.067144 -0.0668454 -0.0658508 -0.065185 -0.0661292 -0.0763831 0 0 0 0 0 0 0 0 0 0 0 0 0 0 0 0 0 0 0 0 0 0 0 0 0 0 0 0 0 0 0 0 0 0 0 0 0 0 0 0 0 0 0 0 0 0 0 0 0 0 0 0 0 0 0 0 0 0 0 0 0 0 0 0 0 0 0 0 0 0 0 0 0 0 0 0 0 0 0 0 0 0 0 0 0 0 0 0 0 0 0 0 0 0 0 0 0 0 0 0 0 0 0 0 0 0 0 0 0 0 0 0 0 0 0 0 0 0 0 0 0 0 0 0 0 0 0 0 0 0 0 0 0 0 0 0 0 0 0 0 0 -0.0474753 -0.0446626 -0.0493771 -0.0538133 -0.0562127 -0.0591235 -0.0612896 -0.0626324 -0.0632207 -0.063376 -0.0632227 -0.0628782 -0.0623623 -0.0617704 -0.0611439 -0.0604769 -0.0596963 -0.0587394 -0.0578144 -0.0569469 -0.0562016 -0.0558786 -0.0566009 -0.0570049 -0.0558523 -0.0549925 -0.0544261 -0.0539293 -0.053538 -0.0529912 -0.052427 -0.0520929 -0.0519114 -0.0518165 -0.0517742 -0.0517473 -0.051628 -0.0512987 -0.0509886 -0.0508812 -0.0508661 -0.0508794 -0.0507876 -0.0503579 -0.0493903 -0.0495752 -0.0500868 -0.0504275 -0.0505427 -0.0504233 -0.0500846 -0.049754 -0.049419 -0.049061 -0.0486836 -0.0482983 -0.0479192 -0.0475608 -0.0472369 -0.0469606 -0.0467434 -0.0465922 -0.0465037 -0.0464512 -0.0463885 -0.0462649 -0.0460697 -0.0459743 -0.0460182 -0.0463565 -0.0473203 -0.0491356 -0.050043 -0.0501417 -0.0509726 -0.051911 -0.0527829 -0.0532249 -0.0537193 -0.0544392 -0.0552462 -0.0565946 -0.0651937 0 0 0 0 0 0 0 0 0 0 0 0 0 0 0 0 0 0 0 0 0 0 0 -0.0545353 -0.0597942 -0.0616234 -0.0621595 -0.0619614 -0.0611776 -0.0598455 -0.0589093 -0.0581303 -0.0574221 -0.0567323 -0.0558898 -0.0546131 -0.0528937 -0.0524949 -0.0525063 -0.0523943 -0.0521695 -0.0518743 -0.0515438 -0.0511701 -0.0507324 -0.0502256 -0.0497056 -0.0492336 -0.0487996 -0.0483908 -0.0480016 -0.0476306 -0.0472794 -0.0469503 -0.0466454 -0.046366 -0.0461129 -0.0458859 -0.0456844 -0.0455074 -0.0453536 -0.0452218 -0.0451107 -0.0450191 -0.0449458 -0.0448898 -0.0448499 -0.0448253 -0.0448148 -0.0448178 -0.0448333 -0.0448608 -0.0448999 -0.0449505 -0.0450127 -0.0450868 -0.0451727 -0.0452702 -0.0453786 -0.0454961 -0.0456183 -0.0457339 -0.045817 -0.0458209 -0.0456781 -0.0453621 -0.0448953 -0.0444051 -0.0444744 -0.0449055 -0.0453627 -0.045717 -0.0459742 -0.046144 -0.0462533 -0.0463117 -0.046328 -0.0463071 -0.0462533 -0.0461703 -0.046062 -0.0459323 -0.0457854 -0.0456258 -0.0454584 -0.0452875 -0.0451176 -0.0449522 -0.0447944 -0.0446458 -0.0445074 -0.0443789 -0.0442593 -0.0441468 -0.0440395 -0.0439354 -0.0438329 -0.0437309 -0.0436287 -0.0435263 -0.0434241 -0.0433227 -0.0432229 -0.0431254 -0.0430311 -0.0429405 -0.0428543 -0.0427729 -0.0426965 -0.0426255 -0.0425599 -0.0424996 -0.0424445 -0.0423943 -0.0423482 -0.0423056 -0.0422655 -0.0422262 -0.0421858 -0.0421407 -0.0420844 -0.0420003 -0.0418507 -0.0415724 -0.0410911 -0.0403405 -0.0392071 -0.037477 -0.0348991 -0.031277 -0.0265121 -0.020341 -0.0119773 -2.1684e-19 