# vtk DataFile Version 2.0
iteration 999
ASCII

DATASET STRUCTURED_POINTS
DIMENSIONS 621 64 1
ORIGIN 0 0 0
SPACING 0.00161031 0.00161031 0.00161031

POINT_DATA 39744
SCALARS P float 1
LOOKUP_TABLE default
0 0 0 0 0 0 0 0 0 0 0 0 0 0 0 0 0 0 0 0 0 0 0 0 0 0 0 0 0 0 0 0 0 0 0 0 0 0 0 0 0 0 0 0 0 0 0 0 0 0 0 0 0 0 0 0 0 0 0 0 0 0 0 0 0 0 0 0 0 0 0 0 0 0 0 0 0 0 0 0 0 0 0 0 0 0 0 0 0 0 0 0 0 0 0 0 0 0 0 0 0 0 0 0 0 0 0 0 0 0 0 0 0 0 0 0 0 0 0 0 0 0 0 0 0 0 0 0 0 0 0 0 0 0 0 0 0 0 0 0 0 0 0 0 0 0 0 0 0 0 0 0 0 0 0 0 0 0 0 0 0 0 0 0 0 0 0 0 0 0 0 0 0 0 0 0 0 0 0 0 0 0 0 0 0 0 0 0 0 0 0 0 0 0 0 0 0 0 0 0 0 0 0 0 0 0 0 0 0 0 0 0 0 0 0 0 0 0 0 0 0 0 0 0 0 0 0 0 0 0 0 0 0 0 0 0 0 0 0 0 0 0 0 0 0 0 0 0 0 0 0 0 0 0 0 0 0 0 0 0 0 0 0 0 0 0 0 0 0 0 0 0 0 0 0 0 0 0 0 0 0 0 0 0 0 0 0 0 0 0 0 0 0 0 0 0 0 0 0 0 0 0 0 0 0 0 0 0 0 0 0 0 0 0 0 0 0 0 0 0 0 0 0 0 0 0 0 0 0 0 0 0 0 0 0 0 0 0 0 0 0 0 0 0 0 0 0 0 0 0 0 0 0 0 0 0 0 0 0 0 0 0 0 0 0 0 0 0 0 0 0 0 0 0 0 0 0 0 0 0 0 0 0 0 0 0 0 0 0 0 0 0 0 0 0 0 0 0 0 0 0 0 0 0 0 0 0 0 0 0 0 0 0 0 0 0 0 0 0 0 0 0 0 0 0 0 0 0 0 0 0 0 0 0 0 0 0 0 0 0 0 0 0 0 0 0 0 0 0 0 0 0 0 0 0 0 0 0 0 0 0 0 0 0 0 0 0 0 0 0 0 0 0 0 0 0 0 0 0 0 0 0 0 0 0 0 0 0 0 0 0 0 0 0 0 0 0 0 0 0 0 0 0 0 0 0 0 0 0 0 0 0 0 0 0 0 0 0 0 0 0 0 0 0 0 0 0 0 0 0 0 0 0 0 0 0 0 0 0 0 0 0 0 0 0 0 0 0 0 0 0 0 0 0 0 0 0 0 0 0 0 0 0 0 0 0 0 0 0 0 0 0 0 0 0 0 0 0 0 0 0 0 0 0 0 0 0 0 0 0 0 0 0 0 0 0 0 0 0 0 0 0 0 0 0 0 0 0 0 0 0 0 0 0 0 0 0 0 0 0 0 
0.02 0.02 0.02 0.02 0.02 0.02 0.02 0.02 0.02 0.02 0.02 0.02 0.02 0.02 0.02 0.02 0.02 0.02 0.02 0.02 0.02 0.02 0.02 0.02 0.02 0.02 0.02 0.02 0.02 0.02 0.02 0.02 0.02 0.02 0.02 0.02 0.02 0.02 0.02 0.0200001 0.0200001 0.0200001 0.0200001 0.0200001 0.0200001 0.0200001 0.0200002 0.0200002 0.0200002 0.0200002 0.0200003 0.0200003 0.0200004 0.0200004 0.0200005 0.0200006 0.0200006 0.0200007 0.0200008 0.020001 0.0200011 0.0200012 0.0200014 0.0200016 0.0200018 0.020002 0.0200022 0.0200025 0.0200028 0.0200031 0.0200035 0.0200039 0.0200044 0.0200049 0.0200054 0.020006 0.0200067 0.0200074 0.0200082 0.020009 0.0200099 0.0200109 0.020012 0.0200132 0.0200145 0.020016 0.0200175 0.0200192 0.0200209 0.0200229 0.020025 0.0200272 0.0200297 0.0200323 0.0200351 0.0200382 0.0200414 0.0200449 0.0200487 0.0200527 0.0200569 0.0200615 0.0200663 0.0200715 0.020077 0.0200828 0.020089 0.0200955 0.0201024 0.0201096 0.0201172 0.0201252 0.0201336 0.0201423 0.0201513 0.0201607 0.0201704 0.0201804 0.0201907 0.0202011 0.0202118 0.0202225 0.0202333 0.020244 0.0202545 0.0202648 0.0202747 0.0202842 0.0202929 0.0203009 0.0203079 0.0203138 0.0203184 0.0203215 0.0203229 0.0203224 0.0203199 0.020315 0.0203078 0.0202979 0.0202852 0.0202696 0.0202509 0.0202291 0.0202039 0.0201753 0.0201431 0.0201073 0.0200666 0.0200194 0.0199709 0.0199202 0.0198669 0.0198108 0.0197522 0.0196913 0.0196282 0.0195633 0.0194968 0.019429 0.0193602 0.0192906 0.0192207 0.0191508 0.019081 0.0190119 0.0189437 0.0188766 0.0188112 0.0187476 0.0186861 0.0186271 0.0185708 0.0185176 0.0184675 0.018421 0.0183782 0.0183392 0.0183042 0.0182733 0.0182466 0.0182241 0.0182058 0.0181915 0.0181811 0.0181741 0.0181698 0.0181667 0.0181625 0.0181512 0.0181296 0.0180932 0.0180787 0.0180719 0.0180652 0.0180558 0.0180425 0.0180239 0.0179987 0.0179652 0.0179218 0.0178663 0.0177961 0.0177084 0.0176006 0.0174707 0.0173144 0.0171331 0.0169366 0.0167034 0.0165554 0.0166297 0.0174136 0.0196612 0 0 0 0 0 0 0 0 0 0 0 0 0 0 0 0 0 0 0 0 0 0 0 0 0 0 0 0 0 0 0 0 0 0 0 0 0 0 0 0 0 0 0 0 0 0 0 0 0 0 0 0 0 0 0 0 0 0 0 0 0 0 0 0 0 0 0 0 0 0 0 0 0 0 0 0 0 0 0 0 0 0 0 0 0 0 0 0 0 0 0 0 0 0 0 0 0 0 0 0 0 0 0 0 0 0 0 0 0 0 0 0 0 0 0 0 0 0 0 0 0 0 0 0 0 0 0 0 0 0 0 0 0 0 0 0 0 0 0 0 0 0 0 0 0 0 0 0 0 0 0 0 0 0 0 0 0 0 0 0 0 0 0 0 0 0 0 0 0 0 0 0 0 0 0 0 0 0 0 0 0 0 0 0 0 0 0 0 0 0 0 0 0 0 0 0 0 0 0 0 0 0 0 0 0 0 0 0 0 0 0 0 0 0 0 0 0 0 0 0 0 0 0 0 0 0 0 0 0 0 0 0 0 0 0 0 0 0 0 0 0 0 0 0 0 0 0 0 0 0 0 0 0 0 0 0 0 0 0 0 0 0 0 0 0 0 0 0 0 0 0 0 0 0 0 0 0 0 0 0 0 0 0 0 0 0 0 0 0 0 0 0 0 0 0 0 0 0 0 0 0 0 0 0 0 0 0 0 0 0 0 0 0 0 0 0 0 0 0 0 0 0 0 0 0 0 0 0 0 0 0 0 0 0 0 0 0 0 0 0 0 0 0 0 0 0 0 0 0 0 0 0 0 0 0 0 0 0 0 0 0 0 0 0 0 0 0 0 0 0 0 0 0 0 0 0 0 0 0 0 0 0 0 0 0 0 0 0 0 0 0 0 0 0 0 0 0 0 0 0 0 0 0 0 0 0 0 
0.02 0.02 0.02 0.02 0.02 0.02 0.02 0.02 0.02 0.02 0.02 0.02 0.02 0.02 0.02 0.02 0.02 0.02 0.02 0.02 0.02 0.02 0.02 0.02 0.02 0.02 0.02 0.02 0.02 0.02 0.02 0.02 0.02 0.02 0.02 0.02 0.02 0.02 0.02 0.0200001 0.0200001 0.0200001 0.0200001 0.0200001 0.0200001 0.0200001 0.0200002 0.0200002 0.0200002 0.0200002 0.0200003 0.0200003 0.0200004 0.0200004 0.0200005 0.0200006 0.0200006 0.0200007 0.0200008 0.0200009 0.0200011 0.0200012 0.0200014 0.0200015 0.0200017 0.020002 0.0200022 0.0200025 0.0200028 0.0200031 0.0200035 0.0200039 0.0200043 0.0200048 0.0200053 0.0200059 0.0200066 0.0200073 0.020008 0.0200089 0.0200098 0.0200108 0.0200119 0.0200131 0.0200144 0.0200158 0.0200173 0.0200189 0.0200207 0.0200226 0.0200247 0.0200269 0.0200293 0.0200319 0.0200347 0.0200377 0.020041 0.0200444 0.0200481 0.0200521 0.0200563 0.0200608 0.0200657 0.0200708 0.0200762 0.020082 0.0200881 0.0200946 0.0201014 0.0201086 0.0201162 0.0201241 0.0201324 0.0201411 0.0201501 0.0201594 0.0201691 0.0201791 0.0201893 0.0201997 0.0202103 0.020221 0.0202317 0.0202424 0.020253 0.0202633 0.0202732 0.0202827 0.0202915 0.0202996 0.0203066 0.0203126 0.0203173 0.0203205 0.0203221 0.0203218 0.0203194 0.0203148 0.0203078 0.0202982 0.0202858 0.0202706 0.0202522 0.0202307 0.020206 0.0201778 0.0201462 0.0201107 0.0200708 0.0200261 0.0199787 0.0199288 0.0198761 0.0198208 0.0197629 0.0197027 0.0196405 0.0195763 0.0195106 0.0194435 0.0193754 0.0193066 0.0192373 0.0191679 0.0190987 0.01903 0.0189622 0.0188954 0.0188302 0.0187666 0.0187052 0.018646 0.0185895 0.0185359 0.0184853 0.0184382 0.0183945 0.0183545 0.0183184 0.0182862 0.018258 0.0182338 0.0182134 0.0181968 0.0181836 0.018173 0.0181643 0.0181557 0.0181452 0.01813 0.0181093 0.0180885 0.0180748 0.0180662 0.018058 0.0180473 0.0180327 0.018013 0.0179867 0.0179525 0.0179083 0.0178522 0.0177816 0.0176937 0.0175858 0.0174568 0.0173024 0.0171256 0.0169418 0.0167678 0.0165872 0.0167019 0.016327 0.0170764 0.0165755 0.0159271 0.0154823 0.015073 0.0146439 0.0141835 0.0136651 0.0130337 0.0122357 0.0114116 0.010643 0.0100721 0.0107987 0.00909286 0 0 0 0 0 0 0 0 0 0 0 0 0 0 0 0 0 0 0 0 0 0 0 0 0 0 0 0 0 0 0 0 0 0 0 0 0 0 0 0 0 0 0 0 0 0 0 0 0 0 0 0 0 0 0 0 0 0 0 0 0 0 0 0 0 0 0 0 0 0 0 0 0 0 0 0 0 0 0 0 0 0 0 0 0 0 0 0 0 0 0 0 0 0 0 0 0 0 0 0 0 0 0 0 0 0 0 0 0 0 0 0 0 0 0 0 0 0 0 0 0 0 0 0 0 0 0 0 0 0 0 0 0 0 0 0 0 0 0 0 0 0 0 0 0 0 0 0 0 0 0 0 0 0 0 0 0 0 0 0 0 0 0 0 0 0 0 0 0 0 0 0 0 0 0 0 0 0 0 0 0 0 0 0 0 0 0 0 0 0 0 0 0 0 0 0 0 0 0 0 0 0 0 0 0 0 0 0 0 0 0 0 0 0 0 0 0 0 0 0 0 0 0 0 0 0 0 0 0 0 0 0 0 0 0 0 0 0 0 0 0 0 0 0 0 0 0 0 0 0 0 0 0 0 0 0 0 0 0 0 0 0 0 0 0 0 0 0 0 0 0 0 0 0 0 0 0 0 0 0 0 0 0 0 0 0 0 0 0 0 0 0 0 0 0 0 0 0 0 0 0 0 0 0 0 0 0 0 0 0 0 0 0 0 0 0 0 0 0 0 0 0 0 0 0 0 0 0 0 0 0 0 0 0 0 0 0 0 0 0 0 0 0 0 0 0 0 0 0 0 0 0 0 0 0 0 0 0 0 0 0 0 0 0 0 0 0 0 0 0 0 0 0 0 0 0 0 0 0 0 0 0 0 0 0 0 0 0 0 0 0 0 0 
0.02 0.02 0.02 0.02 0.02 0.02 0.02 0.02 0.02 0.02 0.02 0.02 0.02 0.02 0.02 0.02 0.02 0.02 0.02 0.02 0.02 0.02 0.02 0.02 0.02 0.02 0.02 0.02 0.02 0.02 0.02 0.02 0.02 0.02 0.02 0.02 0.02 0.02 0.02 0.0200001 0.0200001 0.0200001 0.0200001 0.0200001 0.0200001 0.0200001 0.0200002 0.0200002 0.0200002 0.0200002 0.0200003 0.0200003 0.0200004 0.0200004 0.0200005 0.0200006 0.0200006 0.0200007 0.0200008 0.0200009 0.0200011 0.0200012 0.0200013 0.0200015 0.0200017 0.0200019 0.0200022 0.0200024 0.0200027 0.0200031 0.0200034 0.0200038 0.0200043 0.0200047 0.0200053 0.0200058 0.0200065 0.0200072 0.0200079 0.0200088 0.0200097 0.0200107 0.0200117 0.0200129 0.0200142 0.0200155 0.020017 0.0200187 0.0200204 0.0200223 0.0200244 0.0200266 0.0200289 0.0200315 0.0200343 0.0200372 0.0200404 0.0200438 0.0200475 0.0200514 0.0200556 0.0200601 0.0200648 0.0200699 0.0200753 0.020081 0.0200871 0.0200935 0.0201003 0.0201074 0.0201149 0.0201227 0.020131 0.0201396 0.0201485 0.0201578 0.0201674 0.0201773 0.0201874 0.0201978 0.0202083 0.020219 0.0202297 0.0202403 0.0202508 0.0202611 0.020271 0.0202805 0.0202893 0.0202974 0.0203045 0.0203106 0.0203153 0.0203186 0.0203203 0.0203201 0.020318 0.0203136 0.0203068 0.0202975 0.0202854 0.0202705 0.0202525 0.0202314 0.0202071 0.0201794 0.0201483 0.0201133 0.0200743 0.0200311 0.0199848 0.0199356 0.0198837 0.0198292 0.0197722 0.019713 0.0196516 0.0195884 0.0195237 0.0194576 0.0193904 0.0193225 0.0192542 0.0191857 0.0191173 0.0190495 0.0189823 0.0189163 0.0188516 0.0187885 0.0187274 0.0186685 0.0186121 0.0185585 0.0185078 0.0184603 0.0184162 0.0183756 0.0183387 0.0183055 0.0182761 0.0182503 0.018228 0.018209 0.0181927 0.0181784 0.0181649 0.0181511 0.0181358 0.0181188 0.0181001 0.0180846 0.0180728 0.018063 0.0180529 0.0180403 0.0180239 0.0180024 0.0179744 0.0179385 0.0178929 0.0178353 0.0177634 0.0176745 0.017566 0.0174379 0.0172906 0.0171262 0.0169765 0.0168449 0.0167448 0.0167574 0.0168207 0.016703 0.0162521 0.0158693 0.0154375 0.0150243 0.0145845 0.0141005 0.0135508 0.0129146 0.0121856 0.0114424 0.0106865 0.0100686 0.00968064 0.00886608 0.00768608 0.00651669 0.00523421 0.00386826 0.0025562 0.00184121 0 0 0 0 0 0 0 0 0 0 0 0 0 0 0 0 0 0 0 0 0 0 0 0 0 0 0 0 0 0 0 0 0 0 0 0 0 0 0 0 0 0 0 0 0 0 0 0 0 0 0 0 0 0 0 0 0 0 0 0 0 0 0 0 0 0 0 0 0 0 0 0 0 0 0 0 0 0 0 0 0 0 0 0 0 0 0 0 0 0 0 0 0 0 0 0 0 0 0 0 0 0 0 0 0 0 0 0 0 0 0 0 0 0 0 0 0 0 0 0 0 0 0 0 0 0 0 0 0 0 0 0 0 0 0 0 0 0 0 0 0 0 0 0 0 0 0 0 0 0 0 0 0 0 0 0 0 0 0 0 0 0 0 0 0 0 0 0 0 0 0 0 0 0 0 0 0 0 0 0 0 0 0 0 0 0 0 0 0 0 0 0 0 0 0 0 0 0 0 0 0 0 0 0 0 0 0 0 0 0 0 0 0 0 0 0 0 0 0 0 0 0 0 0 0 0 0 0 0 0 0 0 0 0 0 0 0 0 0 0 0 0 0 0 0 0 0 0 0 0 0 0 0 0 0 0 0 0 0 0 0 0 0 0 0 0 0 0 0 0 0 0 0 0 0 0 0 0 0 0 0 0 0 0 0 0 0 0 0 0 0 0 0 0 0 0 0 0 0 0 0 0 0 0 0 0 0 0 0 0 0 0 0 0 0 0 0 0 0 0 0 0 0 0 0 0 0 0 0 0 0 0 0 0 0 0 0 0 0 0 0 0 0 0 0 0 0 0 0 0 0 0 0 0 0 0 0 0 0 0 0 0 0 0 0 0 0 0 0 0 0 0 0 0 0 0 0 0 0 0 0 0 0 0 0 0 -2.71051e-20 
0.02 0.02 0.02 0.02 0.02 0.02 0.02 0.02 0.02 0.02 0.02 0.02 0.02 0.02 0.02 0.02 0.02 0.02 0.02 0.02 0.02 0.02 0.02 0.02 0.02 0.02 0.02 0.02 0.02 0.02 0.02 0.02 0.02 0.02 0.02 0.02 0.02 0.02 0.02 0.0200001 0.0200001 0.0200001 0.0200001 0.0200001 0.0200001 0.0200001 0.0200002 0.0200002 0.0200002 0.0200002 0.0200003 0.0200003 0.0200004 0.0200004 0.0200005 0.0200005 0.0200006 0.0200007 0.0200008 0.0200009 0.020001 0.0200012 0.0200013 0.0200015 0.0200017 0.0200019 0.0200021 0.0200024 0.0200027 0.020003 0.0200034 0.0200037 0.0200042 0.0200046 0.0200052 0.0200057 0.0200064 0.020007 0.0200078 0.0200086 0.0200095 0.0200104 0.0200115 0.0200126 0.0200139 0.0200152 0.0200167 0.0200183 0.02002 0.0200219 0.0200239 0.0200261 0.0200284 0.0200309 0.0200336 0.0200365 0.0200397 0.020043 0.0200466 0.0200505 0.0200546 0.020059 0.0200637 0.0200687 0.020074 0.0200796 0.0200856 0.0200919 0.0200986 0.0201056 0.020113 0.0201207 0.0201289 0.0201374 0.0201462 0.0201554 0.0201649 0.0201746 0.0201847 0.020195 0.0202054 0.0202159 0.0202265 0.0202371 0.0202476 0.0202578 0.0202677 0.0202771 0.0202859 0.020294 0.0203011 0.0203072 0.0203121 0.0203155 0.0203173 0.0203173 0.0203153 0.0203112 0.0203047 0.0202956 0.0202839 0.0202694 0.0202519 0.0202313 0.0202076 0.0201805 0.02015 0.0201159 0.0200779 0.0200361 0.019991 0.0199429 0.019892 0.0198386 0.0197828 0.0197247 0.0196646 0.0196026 0.0195391 0.0194743 0.0194084 0.0193418 0.0192746 0.0192073 0.0191401 0.0190733 0.0190072 0.018942 0.0188781 0.0188157 0.0187551 0.0186967 0.0186405 0.0185869 0.0185362 0.0184884 0.0184438 0.0184025 0.0183646 0.0183301 0.018299 0.0182713 0.0182465 0.0182244 0.0182045 0.018186 0.018168 0.0181501 0.0181319 0.018114 0.0180975 0.0180834 0.0180712 0.0180597 0.0180472 0.0180321 0.0180131 0.0179892 0.0179589 0.0179207 0.0178728 0.0178132 0.0177396 0.0176494 0.0175409 0.0174158 0.0172795 0.0171371 0.0170128 0.0169284 0.016858 0.0167173 0.0166992 0.0164903 0.0161488 0.0157908 0.0153927 0.0149774 0.0145298 0.0140295 0.0134651 0.0128319 0.0121536 0.0114604 0.0107651 0.0101046 0.00944974 0.00862659 0.00753793 0.00639773 0.00515699 0.00387997 0.00256429 0.00131724 -0.000261461 -0.00202166 -0.00382754 -0.0059104 -0.00829415 0 0 0 0 0 0 0 0 0 0 0 0 0 0 0 0 0 0 0 0 0 0 0 0 0 0 0 0 0 0 0 0 0 0 0 0 0 0 0 0 0 0 0 0 0 0 0 0 0 0 0 0 0 0 0 0 0 0 0 0 0 0 0 0 0 0 0 0 0 0 0 0 0 0 0 0 0 0 0 0 0 0 0 0 0 0 0 0 0 0 0 0 0 0 0 0 0 0 0 0 0 0 0 0 0 0 0 0 0 0 0 0 0 0 0 0 0 0 0 0 0 0 0 0 0 0 0 0 0 0 0 0 0 0 0 0 0 0 0 0 0 0 0 0 0 0 0 0 0 0 0 0 0 0 0 0 0 0 0 0 0 0 0 0 0 0 0 0 0 0 0 0 0 0 0 0 0 0 0 0 0 0 0 0 0 0 0 0 0 0 0 0 0 0 0 0 0 0 0 0 0 0 0 0 0 0 0 0 0 0 0 0 0 0 0 0 0 0 0 0 0 0 0 0 0 0 0 0 0 0 0 0 0 0 0 0 0 0 0 0 0 0 0 0 0 0 0 0 0 0 0 0 0 0 0 0 0 0 0 0 0 0 0 0 0 0 0 0 0 0 0 0 0 0 0 0 0 0 0 0 0 0 0 0 0 0 0 0 0 0 0 0 0 0 0 0 0 0 0 0 0 0 0 0 0 0 0 0 0 0 0 0 0 0 0 0 0 0 0 0 0 0 0 0 0 0 0 0 0 0 0 0 0 0 0 0 0 0 0 0 0 0 0 0 0 0 0 0 0 0 0 0 0 0 0 0 0 0 0 0 0 0 0 0 0 0 0 0 0 0 0 0 0 0 0 0 0 0 0 0 -0.00422035 -3.25261e-19 
0.02 0.02 0.02 0.02 0.02 0.02 0.02 0.02 0.02 0.02 0.02 0.02 0.02 0.02 0.02 0.02 0.02 0.02 0.02 0.02 0.02 0.02 0.02 0.02 0.02 0.02 0.02 0.02 0.02 0.02 0.02 0.02 0.02 0.02 0.02 0.02 0.02 0.02 0.02 0.0200001 0.0200001 0.0200001 0.0200001 0.0200001 0.0200001 0.0200001 0.0200001 0.0200002 0.0200002 0.0200002 0.0200003 0.0200003 0.0200004 0.0200004 0.0200005 0.0200005 0.0200006 0.0200007 0.0200008 0.0200009 0.020001 0.0200011 0.0200013 0.0200015 0.0200016 0.0200018 0.0200021 0.0200023 0.0200026 0.0200029 0.0200033 0.0200036 0.0200041 0.0200045 0.020005 0.0200056 0.0200062 0.0200068 0.0200076 0.0200084 0.0200092 0.0200102 0.0200112 0.0200123 0.0200135 0.0200148 0.0200163 0.0200178 0.0200195 0.0200213 0.0200233 0.0200254 0.0200277 0.0200301 0.0200328 0.0200356 0.0200387 0.020042 0.0200455 0.0200492 0.0200533 0.0200576 0.0200622 0.020067 0.0200722 0.0200778 0.0200836 0.0200898 0.0200963 0.0201032 0.0201105 0.0201181 0.0201261 0.0201344 0.0201431 0.0201521 0.0201615 0.0201711 0.020181 0.0201911 0.0202014 0.0202118 0.0202223 0.0202328 0.0202431 0.0202532 0.020263 0.0202724 0.0202812 0.0202892 0.0202964 0.0203025 0.0203074 0.020311 0.0203129 0.0203131 0.0203114 0.0203075 0.0203013 0.0202927 0.0202814 0.0202674 0.0202505 0.0202306 0.0202075 0.0201813 0.0201516 0.0201185 0.0200817 0.0200413 0.0199977 0.019951 0.0199015 0.0198495 0.0197951 0.0197385 0.0196798 0.0196194 0.0195575 0.0194942 0.0194299 0.0193648 0.0192992 0.0192334 0.0191676 0.0191021 0.0190371 0.0189731 0.0189101 0.0188486 0.0187887 0.0187307 0.0186748 0.0186214 0.0185704 0.0185223 0.018477 0.0184347 0.0183955 0.0183594 0.0183263 0.018296 0.0182683 0.0182427 0.018219 0.0181965 0.0181749 0.0181541 0.0181343 0.0181159 0.0180993 0.0180844 0.0180705 0.0180564 0.0180407 0.0180224 0.0180003 0.0179732 0.0179399 0.0178988 0.0178482 0.017786 0.0177103 0.0176192 0.017512 0.0173925 0.0172696 0.0171516 0.0170454 0.0169714 0.0169092 0.0168227 0.016633 0.0163714 0.0160614 0.0157149 0.0153344 0.0149184 0.014463 0.0139545 0.0133898 0.0127742 0.0121284 0.0114738 0.0108021 0.0100608 0.00933712 0.00844434 0.00740522 0.00628154 0.00508261 0.0038377 0.00252307 0.00113885 -0.000405354 -0.0020778 -0.00371374 -0.00566551 -0.00783864 -0.00992129 -0.0121415 -0.0143947 -0.0183406 -0.0194383 0 0 0 0 0 0 0 0 0 0 0 0 0 0 0 0 0 0 0 0 0 0 0 0 0 0 0 0 0 0 0 0 0 0 0 0 0 0 0 0 0 0 0 0 0 0 0 0 0 0 0 0 0 0 0 0 0 0 0 0 0 0 0 0 0 0 0 0 0 0 0 0 0 0 0 0 0 0 0 0 0 0 0 0 0 0 0 0 0 0 0 0 0 0 0 0 0 0 0 0 0 0 0 0 0 0 0 0 0 0 0 0 0 0 0 0 0 0 0 0 0 0 0 0 0 0 0 0 0 0 0 0 0 0 0 0 0 0 0 0 0 0 0 0 0 0 0 0 0 0 0 0 0 0 0 0 0 0 0 0 0 0 0 0 0 0 0 0 0 0 0 0 0 0 0 0 0 0 0 0 0 0 0 0 0 0 0 0 0 0 0 0 0 0 0 0 0 0 0 0 0 0 0 0 0 0 0 0 0 0 0 0 0 0 0 0 0 0 0 0 0 0 0 0 0 0 0 0 0 0 0 0 0 0 0 0 0 0 0 0 0 0 0 0 0 0 0 0 0 0 0 0 0 0 0 0 0 0 0 0 0 0 0 0 0 0 0 0 0 0 0 0 0 0 0 0 0 0 0 0 0 0 0 0 0 0 0 0 0 0 0 0 0 0 0 0 0 0 0 0 0 0 0 0 0 0 0 0 0 0 0 0 0 0 0 0 0 0 0 0 0 0 0 0 0 0 0 0 0 0 0 0 0 0 0 0 0 0 0 0 0 0 0 0 0 0 0 0 0 0 0 0 0 0 0 0 0 0 0 0 0 0 0 0 0 0 0 0 0 0 0 0 0 0 -0.0130509 -0.00678938 -2.1684e-19 
0.02 0.02 0.02 0.02 0.02 0.02 0.02 0.02 0.02 0.02 0.02 0.02 0.02 0.02 0.02 0.02 0.02 0.02 0.02 0.02 0.02 0.02 0.02 0.02 0.02 0.02 0.02 0.02 0.02 0.02 0.02 0.02 0.02 0.02 0.02 0.02 0.02 0.02 0.02 0.02 0.0200001 0.0200001 0.0200001 0.0200001 0.0200001 0.0200001 0.0200001 0.0200002 0.0200002 0.0200002 0.0200003 0.0200003 0.0200003 0.0200004 0.0200004 0.0200005 0.0200006 0.0200007 0.0200008 0.0200009 0.020001 0.0200011 0.0200012 0.0200014 0.0200016 0.0200018 0.020002 0.0200022 0.0200025 0.0200028 0.0200032 0.0200035 0.0200039 0.0200044 0.0200049 0.0200054 0.020006 0.0200066 0.0200073 0.0200081 0.0200089 0.0200098 0.0200108 0.0200119 0.0200131 0.0200144 0.0200157 0.0200172 0.0200189 0.0200206 0.0200225 0.0200246 0.0200268 0.0200292 0.0200317 0.0200345 0.0200374 0.0200406 0.020044 0.0200477 0.0200516 0.0200558 0.0200602 0.020065 0.02007 0.0200754 0.0200811 0.0200871 0.0200935 0.0201002 0.0201073 0.0201148 0.0201226 0.0201307 0.0201392 0.020148 0.0201572 0.0201666 0.0201763 0.0201863 0.0201964 0.0202066 0.0202169 0.0202272 0.0202374 0.0202474 0.0202571 0.0202664 0.0202751 0.0202831 0.0202903 0.0202965 0.0203014 0.0203051 0.0203072 0.0203076 0.0203061 0.0203026 0.0202968 0.0202886 0.0202779 0.0202645 0.0202482 0.0202291 0.0202069 0.0201815 0.020153 0.020121 0.0200857 0.0200469 0.0200049 0.0199599 0.0199121 0.0198618 0.0198091 0.0197542 0.0196974 0.0196389 0.0195788 0.0195174 0.0194549 0.0193916 0.0193278 0.0192637 0.0191995 0.0191356 0.0190721 0.0190093 0.0189475 0.0188869 0.0188278 0.0187703 0.0187148 0.0186614 0.0186103 0.0185616 0.0185155 0.0184721 0.0184314 0.0183933 0.0183578 0.0183248 0.0182939 0.018265 0.0182378 0.018212 0.0181876 0.0181646 0.0181432 0.0181234 0.0181052 0.0180881 0.0180712 0.0180535 0.0180341 0.0180119 0.017986 0.0179551 0.0179181 0.0178735 0.0178195 0.0177545 0.0176766 0.0175852 0.017481 0.0173687 0.0172581 0.0171587 0.0170692 0.016981 0.0168885 0.0167468 0.0165458 0.016287 0.0159832 0.0156397 0.0152628 0.0148467 0.0143859 0.0138762 0.0133194 0.0127241 0.0120992 0.0114599 0.0107934 0.0100721 0.00924055 0.00830762 0.00728321 0.0061753 0.00499361 0.00374936 0.00242504 0.000983786 -0.000570643 -0.00223025 -0.00393603 -0.00571724 -0.00785061 -0.00983958 -0.0119587 -0.0141623 -0.0168276 -0.0195983 -0.0219162 -0.0244719 -0.0277641 -0.0332409 0 0 0 0 0 0 0 0 0 0 0 0 0 0 0 0 0 0 0 0 0 0 0 0 0 0 0 0 0 0 0 0 0 0 0 0 0 0 0 0 0 0 0 0 0 0 0 0 0 0 0 0 0 0 0 0 0 0 0 0 0 0 0 0 0 0 0 0 0 0 0 0 0 0 0 0 0 0 0 0 0 0 0 0 0 0 0 0 0 0 0 0 0 0 0 0 0 0 0 0 0 0 0 0 0 0 0 0 0 0 0 0 0 0 0 0 0 0 0 0 0 0 0 0 0 0 0 0 0 0 0 0 0 0 0 0 0 0 0 0 0 0 0 0 0 0 0 0 0 0 0 0 0 0 0 0 0 0 0 0 0 0 0 0 0 0 0 0 0 0 0 0 0 0 0 0 0 0 0 0 0 0 0 0 0 0 0 0 0 0 0 0 0 0 0 0 0 0 0 0 0 0 0 0 0 0 0 0 0 0 0 0 0 0 0 0 0 0 0 0 0 0 0 0 0 0 0 0 0 0 0 0 0 0 0 0 0 0 0 0 0 0 0 0 0 0 0 0 0 0 0 0 0 0 0 0 0 0 0 0 0 0 0 0 0 0 0 0 0 0 0 0 0 0 0 0 0 0 0 0 0 0 0 0 0 0 0 0 0 0 0 0 0 0 0 0 0 0 0 0 0 0 0 0 0 0 0 0 0 0 0 0 0 0 0 0 0 0 0 0 0 0 0 0 0 0 0 0 0 0 0 0 0 0 0 0 0 0 0 0 0 0 0 0 0 0 0 0 0 0 0 0 0 0 0 0 0 0 0 0 0 0 0 0 0 0 0 0 0 -0.0243548 -0.0175604 -0.00961666 -1.0842e-18 
0.02 0.02 0.02 0.02 0.02 0.02 0.02 0.02 0.02 0.02 0.02 0.02 0.02 0.02 0.02 0.02 0.02 0.02 0.02 0.02 0.02 0.02 0.02 0.02 0.02 0.02 0.02 0.02 0.02 0.02 0.02 0.02 0.02 0.02 0.02 0.02 0.02 0.02 0.02 0.02 0.0200001 0.0200001 0.0200001 0.0200001 0.0200001 0.0200001 0.0200001 0.0200002 0.0200002 0.0200002 0.0200002 0.0200003 0.0200003 0.0200004 0.0200004 0.0200005 0.0200006 0.0200006 0.0200007 0.0200008 0.0200009 0.0200011 0.0200012 0.0200013 0.0200015 0.0200017 0.0200019 0.0200022 0.0200024 0.0200027 0.020003 0.0200034 0.0200038 0.0200042 0.0200047 0.0200052 0.0200057 0.0200063 0.020007 0.0200077 0.0200085 0.0200094 0.0200104 0.0200114 0.0200125 0.0200138 0.0200151 0.0200165 0.0200181 0.0200198 0.0200216 0.0200236 0.0200257 0.020028 0.0200305 0.0200331 0.020036 0.020039 0.0200423 0.0200458 0.0200496 0.0200537 0.020058 0.0200625 0.0200674 0.0200726 0.0200781 0.020084 0.0200902 0.0200967 0.0201035 0.0201108 0.0201183 0.0201263 0.0201345 0.0201431 0.020152 0.0201612 0.0201707 0.0201804 0.0201903 0.0202003 0.0202104 0.0202205 0.0202305 0.0202404 0.0202499 0.0202591 0.0202677 0.0202757 0.0202828 0.020289 0.020294 0.0202978 0.0203001 0.0203007 0.0202995 0.0202963 0.020291 0.0202834 0.0202732 0.0202605 0.0202451 0.0202268 0.0202056 0.0201813 0.020154 0.0201234 0.0200896 0.0200526 0.0200124 0.0199693 0.0199235 0.0198752 0.0198246 0.0197718 0.019717 0.0196606 0.0196026 0.0195433 0.019483 0.0194218 0.01936 0.0192978 0.0192355 0.0191733 0.0191115 0.0190502 0.0189897 0.0189302 0.0188719 0.0188151 0.01876 0.0187067 0.0186554 0.0186062 0.0185592 0.0185145 0.0184722 0.0184321 0.0183943 0.0183586 0.0183249 0.018293 0.0182628 0.0182343 0.0182074 0.0181822 0.0181586 0.0181365 0.0181154 0.0180948 0.0180739 0.018052 0.0180281 0.0180015 0.0179711 0.0179358 0.0178944 0.0178456 0.0177879 0.0177197 0.01764 0.0175489 0.0174485 0.0173435 0.0172414 0.0171486 0.0170621 0.016964 0.016837 0.016674 0.0164613 0.0161999 0.0158974 0.0155577 0.0151815 0.0147647 0.0143028 0.0137966 0.0132501 0.0126723 0.0120637 0.0114211 0.0107363 0.00997839 0.009132 0.00819329 0.00716957 0.00606642 0.00488689 0.00362758 0.00227743 0.000825831 -0.00072459 -0.00239036 -0.00415047 -0.00603113 -0.00799297 -0.0099983 -0.0120855 -0.0143951 -0.0167889 -0.0193176 -0.021634 -0.0241648 -0.0259699 -0.0301384 -0.0326329 -0.0346208 -0.0369105 -0.043754 -0.0430945 0 0 0 0 0 0 0 0 0 0 0 0 0 0 0 0 0 0 0 0 0 0 0 0 0 0 0 0 0 0 0 0 0 0 0 0 0 0 0 0 0 0 0 0 0 0 0 0 0 0 0 0 0 0 0 0 0 0 0 0 0 0 0 0 0 0 0 0 0 0 0 0 0 0 0 0 0 0 0 0 0 0 0 0 0 0 0 0 0 0 0 0 0 0 0 0 0 0 0 0 0 0 0 0 0 0 0 0 0 0 0 0 0 0 0 0 0 0 0 0 0 0 0 0 0 0 0 0 0 0 0 0 0 0 0 0 0 0 0 0 0 0 0 0 0 0 0 0 0 0 0 0 0 0 0 0 0 0 0 0 0 0 0 0 0 0 0 0 0 0 0 0 0 0 0 0 0 0 0 0 0 0 0 0 0 0 0 0 0 0 0 0 0 0 0 0 0 0 0 0 0 0 0 0 0 0 0 0 0 0 0 0 0 0 0 0 0 0 0 0 0 0 0 0 0 0 0 0 0 0 0 0 0 0 0 0 0 0 0 0 0 0 0 0 0 0 0 0 0 0 0 0 0 0 0 0 0 0 0 0 0 0 0 0 0 0 0 0 0 0 0 0 0 0 0 0 0 0 0 0 0 0 0 0 0 0 0 0 0 0 0 0 0 0 0 0 0 0 0 0 0 0 0 0 0 0 0 0 0 0 0 0 0 0 0 0 0 0 0 0 0 0 0 0 0 0 0 0 0 0 0 0 0 0 0 0 0 0 0 0 0 0 0 0 0 0 0 0 0 0 0 0 0 0 0 0 0 0 0 -0.0423497 -0.0434482 -0.0421971 -0.0385317 -0.033846 -0.0274577 -0.0200061 -0.0112912 4.33681e-19 
0.02 0.02 0.02 0.02 0.02 0.02 0.02 0.02 0.02 0.02 0.02 0.02 0.02 0.02 0.02 0.02 0.02 0.02 0.02 0.02 0.02 0.02 0.02 0.02 0.02 0.02 0.02 0.02 0.02 0.02 0.02 0.02 0.02 0.02 0.02 0.02 0.02 0.02 0.02 0.02 0.0200001 0.0200001 0.0200001 0.0200001 0.0200001 0.0200001 0.0200001 0.0200002 0.0200002 0.0200002 0.0200002 0.0200003 0.0200003 0.0200003 0.0200004 0.0200005 0.0200005 0.0200006 0.0200007 0.0200008 0.0200009 0.020001 0.0200011 0.0200013 0.0200014 0.0200016 0.0200018 0.020002 0.0200023 0.0200026 0.0200029 0.0200032 0.0200036 0.020004 0.0200044 0.0200049 0.0200054 0.020006 0.0200067 0.0200074 0.0200081 0.020009 0.0200099 0.0200108 0.0200119 0.0200131 0.0200143 0.0200157 0.0200172 0.0200188 0.0200205 0.0200224 0.0200244 0.0200266 0.020029 0.0200315 0.0200342 0.0200372 0.0200403 0.0200437 0.0200473 0.0200512 0.0200553 0.0200597 0.0200644 0.0200694 0.0200747 0.0200803 0.0200862 0.0200925 0.0200991 0.0201061 0.0201134 0.0201211 0.0201291 0.0201374 0.020146 0.020155 0.0201642 0.0201736 0.0201832 0.020193 0.0202028 0.0202127 0.0202225 0.0202321 0.0202415 0.0202505 0.020259 0.0202669 0.020274 0.0202801 0.0202853 0.0202891 0.0202916 0.0202925 0.0202916 0.0202888 0.020284 0.0202769 0.0202675 0.0202556 0.020241 0.0202237 0.0202036 0.0201805 0.0201545 0.0201255 0.0200934 0.0200583 0.0200202 0.0199792 0.0199356 0.0198895 0.0198412 0.0197907 0.0197383 0.0196842 0.0196286 0.0195717 0.0195137 0.0194549 0.0193953 0.0193353 0.0192751 0.0192149 0.0191548 0.0190952 0.0190362 0.018978 0.0189207 0.0188647 0.0188101 0.018757 0.0187055 0.0186559 0.0186082 0.0185624 0.0185186 0.0184768 0.0184369 0.0183989 0.0183627 0.0183283 0.0182956 0.0182645 0.0182351 0.0182072 0.0181806 0.0181551 0.0181301 0.0181051 0.0180795 0.0180527 0.0180238 0.0179921 0.0179566 0.0179163 0.01787 0.0178165 0.0177546 0.0176831 0.0176016 0.0175111 0.0174143 0.0173153 0.0172181 0.0171247 0.0170303 0.0169226 0.0167829 0.0166007 0.0163751 0.0161097 0.0158077 0.0154695 0.015093 0.014676 0.0142164 0.013716 0.0131784 0.0126093 0.0120068 0.0113598 0.0106536 0.00987812 0.00901915 0.00807419 0.00704797 0.00594393 0.00475934 0.0034863 0.00211958 0.000653998 -0.000909726 -0.0025757 -0.00435961 -0.00622272 -0.00819399 -0.0102434 -0.012374 -0.0145605 -0.0170117 -0.0193379 -0.0216924 -0.0242831 -0.0270326 -0.0295859 -0.0319357 -0.0340585 -0.0364873 -0.0400281 -0.0430827 -0.0447939 -0.0462281 -0.0470593 -0.0489606 -0.0521049 -0.061219 0 0 0 0 0 0 0 0 0 0 0 0 0 0 0 0 0 0 0 0 0 0 0 0 0 0 0 0 0 0 0 0 0 0 0 0 0 0 0 0 0 0 0 0 0 0 0 0 0 0 0 0 0 0 0 0 0 0 0 0 0 0 0 0 0 0 0 0 0 0 0 0 0 0 0 0 0 0 0 0 0 0 0 0 0 0 0 0 0 0 0 0 0 0 0 0 0 0 0 0 0 0 0 0 0 0 0 0 0 0 0 0 0 0 0 0 0 0 0 0 0 0 0 0 0 0 0 0 0 0 0 0 0 0 0 0 0 0 0 0 0 0 0 0 0 0 0 0 0 0 0 0 0 0 0 0 0 0 0 0 0 0 0 0 0 0 0 0 0 0 0 0 0 0 0 0 0 0 0 0 0 0 0 0 0 0 0 0 0 0 0 0 0 0 0 0 -0.0482084 -0.050402 -0.0511949 -0.0515959 -0.051846 -0.0519426 -0.0519564 -0.0519137 -0.0518326 -0.0517286 -0.0516125 -0.0514924 -0.0513741 -0.0512618 -0.0511582 -0.0510653 -0.0509846 -0.0509167 -0.0508622 -0.0508213 -0.0507937 -0.0507792 -0.0507773 -0.0507873 -0.0508082 -0.0508391 -0.0508789 -0.0509263 -0.05098 -0.0510387 -0.051101 -0.0511658 -0.0512317 -0.0512978 -0.051363 -0.0514267 -0.0514883 -0.0515473 -0.0516037 -0.0516574 -0.0517084 -0.0517571 -0.0518032 -0.0518466 -0.0518863 -0.0519206 -0.051947 -0.0519621 -0.0519625 -0.0519456 -0.0519103 -0.0518589 -0.0517959 -0.0517249 -0.0516625 -0.051639 -0.0516342 -0.0518754 -0.0533185 -0.059146 -0.0562855 0 0 0 0 0 0 0 0 0 0 0 0 0 0 0 0 0 0 0 0 0 0 0 0 0 0 0 0 0 0 0 0 0 0 0 0 0 0 0 0 0 0 0 0 0 0 0 0 0 0 0 0 0 0 0 0 0 0 0 0 0 0 0 0 0 -0.0499612 -0.0520767 -0.0526356 -0.0527844 -0.0528114 -0.0528003 -0.052778 -0.0527505 -0.0527153 -0.0526673 -0.0526017 -0.0525162 -0.0524108 -0.0522875 -0.0521489 -0.0519972 -0.0518341 -0.0516585 -0.0514585 -0.0511912 -0.0507967 -0.0502754 -0.0498833 -0.049547 -0.0492327 -0.0489203 -0.0485957 -0.0482488 -0.0478592 -0.0472854 -0.0462499 -0.0449645 -0.0439631 -0.0421272 -0.0388215 -0.0342888 -0.0283985 -0.0212722 -0.0122971 -1.51788e-18 