# vtk DataFile Version 2.0
iteration 621
ASCII

DATASET STRUCTURED_POINTS
DIMENSIONS 621 64 1
ORIGIN 0 0 0
SPACING 0.00161031 0.00161031 0.00161031

POINT_DATA 39744
SCALARS P float 1
LOOKUP_TABLE default
0 0 0 0 0 0 0 0 0 0 0 0 0 0 0 0 0 0 0 0 0 0 0 0 0 0 0 0 0 0 0 0 0 0 0 0 0 0 0 0 0 0 0 0 0 0 0 0 0 0 0 0 0 0 0 0 0 0 0 0 0 0 0 0 0 0 0 0 0 0 0 0 0 0 0 0 0 0 0 0 0 0 0 0 0 0 0 0 0 0 0 0 0 0 0 0 0 0 0 0 0 0 0 0 0 0 0 0 0 0 0 0 0 0 0 0 0 0 0 0 0 0 0 0 0 0 0 0 0 0 0 0 0 0 0 0 0 0 0 0 0 0 0 0 0 0 0 0 0 0 0 0 0 0 0 0 0 0 0 0 0 0 0 0 0 0 0 0 0 0 0 0 0 0 0 0 0 0 0 0 0 0 0 0 0 0 0 0 0 0 0 0 0 0 0 0 0 0 0 0 0 0 0 0 0 0 0 0 0 0 0 0 0 0 0 0 0 0 0 0 0 0 0 0 0 0 0 0 0 0 0 0 0 0 0 0 0 0 0 0 0 0 0 0 0 0 0 0 0 0 0 0 0 0 0 0 0 0 0 0 0 0 0 0 0 0 0 0 0 0 0 0 0 0 0 0 0 0 0 0 0 0 0 0 0 0 0 0 0 0 0 0 0 0 0 0 0 0 0 0 0 0 0 0 0 0 0 0 0 0 0 0 0 0 0 0 0 0 0 0 0 0 0 0 0 0 0 0 0 0 0 0 0 0 0 0 0 0 0 0 0 0 0 0 0 0 0 0 0 0 0 0 0 0 0 0 0 0 0 0 0 0 0 0 0 0 0 0 0 0 0 0 0 0 0 0 0 0 0 0 0 0 0 0 0 0 0 0 0 0 0 0 0 0 0 0 0 0 0 0 0 0 0 0 0 0 0 0 0 0 0 0 0 0 0 0 0 0 0 0 0 0 0 0 0 0 0 0 0 0 0 0 0 0 0 0 0 0 0 0 0 0 0 0 0 0 0 0 0 0 0 0 0 0 0 0 0 0 0 0 0 0 0 0 0 0 0 0 0 0 0 0 0 0 0 0 0 0 0 0 0 0 0 0 0 0 0 0 0 0 0 0 0 0 0 0 0 0 0 0 0 0 0 0 0 0 0 0 0 0 0 0 0 0 0 0 0 0 0 0 0 0 0 0 0 0 0 0 0 0 0 0 0 0 0 0 0 0 0 0 0 0 0 0 0 0 0 0 0 0 0 0 0 0 0 0 0 0 0 0 0 0 0 0 0 0 0 0 0 0 0 0 0 0 0 0 0 0 0 0 0 0 0 0 0 0 0 0 0 0 0 0 0 0 0 0 0 0 0 0 0 0 0 0 0 0 0 0 0 0 0 0 0 0 0 0 0 0 0 0 0 
0.02 0.02 0.02 0.02 0.02 0.02 0.02 0.02 0.02 0.0199999 0.0199999 0.0199999 0.0199999 0.0199999 0.0199998 0.0199998 0.0199997 0.0199997 0.0199996 0.0199995 0.0199994 0.0199992 0.0199991 0.0199989 0.0199987 0.0199984 0.0199981 0.0199978 0.0199973 0.0199968 0.0199963 0.0199956 0.0199948 0.0199939 0.0199929 0.0199917 0.0199904 0.0199888 0.0199871 0.0199851 0.0199829 0.0199804 0.0199777 0.0199746 0.0199712 0.0199675 0.0199634 0.0199588 0.0199538 0.0199483 0.0199424 0.0199358 0.0199287 0.019921 0.0199126 0.0199035 0.0198936 0.0198829 0.0198713 0.0198587 0.0198452 0.0198306 0.0198148 0.0197979 0.0197797 0.0197601 0.0197391 0.0197166 0.0196926 0.0196669 0.0196395 0.0196103 0.0195793 0.0195464 0.0195114 0.0194743 0.0194349 0.0193933 0.0193493 0.0193027 0.0192534 0.0192013 0.0191462 0.0190878 0.0190259 0.0189603 0.0188906 0.0188163 0.0187372 0.0186525 0.0185619 0.0184645 0.0183597 0.0182466 0.0181245 0.0179924 0.0178492 0.0176941 0.0175262 0.0173448 0.0171497 0.0169412 0.0167208 0.0164915 0.0162576 0.0160101 0.0157681 0.0155462 0.0153621 0.0152252 0.0151376 0.0150918 0.0150706 0.0150663 0.0151008 0.0154775 0.0165076 0.018784 0 0 0 0 0 0 0 0 0 0 0 0 0 0 0 0 0 0 0 0 0 0 0 0 0 0 0 0 0 0 0 0 0 0 0 0 0 0 0 0 0 0 0 0 0 0 0 0 0 0 0 0 0 0 0 0 0 0 0 0 0 0 0 0 0 0 0 0 0 0 0 0 0 0 0 0 0 0 0 0 0 0 0 0 0 0 0 0 0 0 0 0 0 0 0 0 0 0 0 0 0 0 0 0 0 0 0 0 0 0 0 0 0 0 0 0 0 0 0 0 0 0 0 0 0 0 0 0 0 0 0 0 0 0 0 0 0 0 0 0 0 0 0 0 0 0 0 0 0 0 0 0 0 0 0 0 0 0 0 0 0 0 0 0 0 0 0 0 0 0 0 0 0 0 0 0 0 0 0 0 0 0 0 0 0 0 0 0 0 0 0 0 0 0 0 0 0 0 0 0 0 0 0 0 0 0 0 0 0 0 0 0 0 0 0 0 0 0 0 0 0 0 0 0 0 0 0 0 0 0 0 0 0 0 0 0 0 0 0 0 0 0 0 0 0 0 0 0 0 0 0 0 0 0 0 0 0 0 0 0 0 0 0 0 0 0 0 0 0 0 0 0 0 0 0 0 0 0 0 0 0 0 0 0 0 0 0 0 0 0 0 0 0 0 0 0 0 0 0 0 0 0 0 0 0 0 0 0 0 0 0 0 0 0 0 0 0 0 0 0 0 0 0 0 0 0 0 0 0 0 0 0 0 0 0 0 0 0 0 0 0 0 0 0 0 0 0 0 0 0 0 0 0 0 0 0 0 0 0 0 0 0 0 0 0 0 0 0 0 0 0 0 0 0 0 0 0 0 0 0 0 0 0 0 0 0 0 0 0 0 0 0 0 0 0 0 0 0 0 0 0 0 0 0 0 0 0 0 0 0 0 0 0 0 0 0 0 0 0 0 0 0 0 0 0 0 0 0 0 0 0 0 0 0 0 0 0 0 0 0 0 0 0 0 0 0 0 0 0 0 0 0 0 0 0 0 0 0 0 0 0 0 0 0 0 0 0 0 0 0 0 0 0 0 0 0 0 0 0 0 0 0 0 0 0 0 0 0 0 0 0 0 0 0 0 0 0 0 0 0 0 0 0 
0.02 0.02 0.02 0.02 0.02 0.02 0.02 0.02 0.02 0.0199999 0.0199999 0.0199999 0.0199999 0.0199999 0.0199998 0.0199998 0.0199997 0.0199997 0.0199996 0.0199995 0.0199994 0.0199993 0.0199991 0.0199989 0.0199987 0.0199985 0.0199982 0.0199978 0.0199974 0.019997 0.0199964 0.0199958 0.019995 0.0199941 0.0199931 0.019992 0.0199907 0.0199892 0.0199875 0.0199856 0.0199835 0.0199811 0.0199784 0.0199754 0.0199721 0.0199685 0.0199645 0.01996 0.0199552 0.0199499 0.0199441 0.0199377 0.0199308 0.0199233 0.0199151 0.0199062 0.0198966 0.0198861 0.0198748 0.0198626 0.0198493 0.019835 0.0198196 0.019803 0.0197851 0.0197659 0.0197453 0.0197232 0.0196996 0.0196743 0.0196473 0.0196186 0.0195879 0.0195554 0.0195207 0.019484 0.019445 0.0194038 0.01936 0.0193137 0.0192648 0.0192129 0.019158 0.0190998 0.0190381 0.0189727 0.0189031 0.018829 0.01875 0.0186655 0.018575 0.0184779 0.0183733 0.0182605 0.0181387 0.018007 0.0178643 0.0177099 0.0175427 0.0173622 0.0171681 0.0169608 0.0167416 0.0165132 0.0162799 0.0160441 0.0158057 0.0155864 0.0154003 0.0152584 0.0151647 0.015114 0.015093 0.0151002 0.0151924 0.015508 0.0156464 0.0168631 0.0160805 0.0150554 0.0151521 0.0148041 0.0141351 0.0137117 0.0148669 0 0 0 0 0 0 0 0 0 0 0 0 0 0 0 0 0 0 0 0 0 0 0 0 0 0 0 0 0 0 0 0 0 0 0 0 0 0 0 0 0 0 0 0 0 0 0 0 0 0 0 0 0 0 0 0 0 0 0 0 0 0 0 0 0 0 0 0 0 0 0 0 0 0 0 0 0 0 0 0 0 0 0 0 0 0 0 0 0 0 0 0 0 0 0 0 0 0 0 0 0 0 0 0 0 0 0 0 0 0 0 0 0 0 0 0 0 0 0 0 0 0 0 0 0 0 0 0 0 0 0 0 0 0 0 0 0 0 0 0 0 0 0 0 0 0 0 0 0 0 0 0 0 0 0 0 0 0 0 0 0 0 0 0 0 0 0 0 0 0 0 0 0 0 0 0 0 0 0 0 0 0 0 0 0 0 0 0 0 0 0 0 0 0 0 0 0 0 0 0 0 0 0 0 0 0 0 0 0 0 0 0 0 0 0 0 0 0 0 0 0 0 0 0 0 0 0 0 0 0 0 0 0 0 0 0 0 0 0 0 0 0 0 0 0 0 0 0 0 0 0 0 0 0 0 0 0 0 0 0 0 0 0 0 0 0 0 0 0 0 0 0 0 0 0 0 0 0 0 0 0 0 0 0 0 0 0 0 0 0 0 0 0 0 0 0 0 0 0 0 0 0 0 0 0 0 0 0 0 0 0 0 0 0 0 0 0 0 0 0 0 0 0 0 0 0 0 0 0 0 0 0 0 0 0 0 0 0 0 0 0 0 0 0 0 0 0 0 0 0 0 0 0 0 0 0 0 0 0 0 0 0 0 0 0 0 0 0 0 0 0 0 0 0 0 0 0 0 0 0 0 0 0 0 0 0 0 0 0 0 0 0 0 0 0 0 0 0 0 0 0 0 0 0 0 0 0 0 0 0 0 0 0 0 0 0 0 0 0 0 0 0 0 0 0 0 0 0 0 0 0 0 0 0 0 0 0 0 0 0 0 0 0 0 0 0 0 0 0 0 0 0 0 0 0 0 0 0 0 0 0 0 0 0 0 0 0 0 0 0 0 0 0 0 0 0 0 0 0 0 0 0 0 0 0 0 0 0 0 0 0 0 0 0 0 0 
0.02 0.02 0.02 0.02 0.02 0.02 0.02 0.02 0.02 0.0199999 0.0199999 0.0199999 0.0199999 0.0199999 0.0199998 0.0199998 0.0199997 0.0199997 0.0199996 0.0199995 0.0199994 0.0199993 0.0199992 0.019999 0.0199988 0.0199985 0.0199983 0.0199979 0.0199975 0.0199971 0.0199965 0.0199959 0.0199952 0.0199943 0.0199934 0.0199922 0.019991 0.0199895 0.0199879 0.0199861 0.019984 0.0199817 0.0199791 0.0199762 0.019973 0.0199695 0.0199656 0.0199613 0.0199566 0.0199514 0.0199458 0.0199396 0.0199329 0.0199256 0.0199176 0.019909 0.0198996 0.0198894 0.0198784 0.0198665 0.0198536 0.0198396 0.0198246 0.0198084 0.0197909 0.0197721 0.019752 0.0197303 0.0197071 0.0196823 0.0196559 0.0196276 0.0195975 0.0195654 0.0195314 0.0194952 0.0194568 0.0194161 0.0193729 0.0193272 0.0192788 0.0192275 0.0191732 0.0191156 0.0190546 0.0189897 0.0189208 0.0188475 0.0187692 0.0186855 0.0185958 0.0184996 0.018396 0.0182843 0.0181636 0.0180332 0.0178919 0.0177388 0.0175732 0.0173944 0.017202 0.0169964 0.0167789 0.0165522 0.0163204 0.016088 0.0158591 0.0156424 0.0154549 0.0153087 0.0152095 0.0151567 0.0151445 0.0151778 0.0153437 0.0156752 0.0161241 0.0160847 0.0154879 0.0148751 0.014595 0.0143454 0.0137882 0.0133183 0.0131574 0.0123447 0.011471 0.0102659 0.0104401 0 0 0 0 0 0 0 0 0 0 0 0 0 0 0 0 0 0 0 0 0 0 0 0 0 0 0 0 0 0 0 0 0 0 0 0 0 0 0 0 0 0 0 0 0 0 0 0 0 0 0 0 0 0 0 0 0 0 0 0 0 0 0 0 0 0 0 0 0 0 0 0 0 0 0 0 0 0 0 0 0 0 0 0 0 0 0 0 0 0 0 0 0 0 0 0 0 0 0 0 0 0 0 0 0 0 0 0 0 0 0 0 0 0 0 0 0 0 0 0 0 0 0 0 0 0 0 0 0 0 0 0 0 0 0 0 0 0 0 0 0 0 0 0 0 0 0 0 0 0 0 0 0 0 0 0 0 0 0 0 0 0 0 0 0 0 0 0 0 0 0 0 0 0 0 0 0 0 0 0 0 0 0 0 0 0 0 0 0 0 0 0 0 0 0 0 0 0 0 0 0 0 0 0 0 0 0 0 0 0 0 0 0 0 0 0 0 0 0 0 0 0 0 0 0 0 0 0 0 0 0 0 0 0 0 0 0 0 0 0 0 0 0 0 0 0 0 0 0 0 0 0 0 0 0 0 0 0 0 0 0 0 0 0 0 0 0 0 0 0 0 0 0 0 0 0 0 0 0 0 0 0 0 0 0 0 0 0 0 0 0 0 0 0 0 0 0 0 0 0 0 0 0 0 0 0 0 0 0 0 0 0 0 0 0 0 0 0 0 0 0 0 0 0 0 0 0 0 0 0 0 0 0 0 0 0 0 0 0 0 0 0 0 0 0 0 0 0 0 0 0 0 0 0 0 0 0 0 0 0 0 0 0 0 0 0 0 0 0 0 0 0 0 0 0 0 0 0 0 0 0 0 0 0 0 0 0 0 0 0 0 0 0 0 0 0 0 0 0 0 0 0 0 0 0 0 0 0 0 0 0 0 0 0 0 0 0 0 0 0 0 0 0 0 0 0 0 0 0 0 0 0 0 0 0 0 0 0 0 0 0 0 0 0 0 0 0 0 0 0 0 0 0 0 0 0 0 0 0 0 0 0 0 0 0 0 0 0 0 0 0 0 0 0 0 0 0 0 0 0 0 0 0 0 0 0 0 0 0 0 0 -8.13152e-20 
0.02 0.02 0.02 0.02 0.02 0.02 0.02 0.02 0.02 0.02 0.0199999 0.0199999 0.0199999 0.0199999 0.0199998 0.0199998 0.0199998 0.0199997 0.0199996 0.0199995 0.0199995 0.0199993 0.0199992 0.019999 0.0199988 0.0199986 0.0199983 0.019998 0.0199976 0.0199972 0.0199967 0.0199961 0.0199954 0.0199946 0.0199936 0.0199926 0.0199914 0.01999 0.0199884 0.0199866 0.0199846 0.0199824 0.0199799 0.0199771 0.0199741 0.0199707 0.0199669 0.0199628 0.0199582 0.0199533 0.0199478 0.0199419 0.0199354 0.0199283 0.0199207 0.0199123 0.0199033 0.0198935 0.0198828 0.0198713 0.0198588 0.0198453 0.0198307 0.019815 0.0197981 0.0197798 0.0197602 0.0197392 0.0197166 0.0196925 0.0196667 0.0196391 0.0196097 0.0195784 0.0195451 0.0195097 0.0194721 0.0194323 0.01939 0.0193451 0.0192976 0.0192473 0.0191939 0.0191374 0.0190774 0.0190137 0.0189459 0.0188738 0.0187968 0.0187144 0.0186262 0.0185315 0.0184296 0.0183197 0.018201 0.0180725 0.0179333 0.0177826 0.0176193 0.0174428 0.0172528 0.0170496 0.0168345 0.0166099 0.0163799 0.0161497 0.0159247 0.0157125 0.0155254 0.0153756 0.015271 0.0152153 0.0152102 0.0152653 0.0154339 0.0157177 0.0158867 0.0157842 0.0151369 0.0146044 0.0141316 0.0136898 0.013289 0.0128233 0.0124502 0.0117336 0.0109446 0.00968301 0.00892775 0.00735887 0.00466247 0.00254738 0 0 0 0 0 0 0 0 0 0 0 0 0 0 0 0 0 0 0 0 0 0 0 0 0 0 0 0 0 0 0 0 0 0 0 0 0 0 0 0 0 0 0 0 0 0 0 0 0 0 0 0 0 0 0 0 0 0 0 0 0 0 0 0 0 0 0 0 0 0 0 0 0 0 0 0 0 0 0 0 0 0 0 0 0 0 0 0 0 0 0 0 0 0 0 0 0 0 0 0 0 0 0 0 0 0 0 0 0 0 0 0 0 0 0 0 0 0 0 0 0 0 0 0 0 0 0 0 0 0 0 0 0 0 0 0 0 0 0 0 0 0 0 0 0 0 0 0 0 0 0 0 0 0 0 0 0 0 0 0 0 0 0 0 0 0 0 0 0 0 0 0 0 0 0 0 0 0 0 0 0 0 0 0 0 0 0 0 0 0 0 0 0 0 0 0 0 0 0 0 0 0 0 0 0 0 0 0 0 0 0 0 0 0 0 0 0 0 0 0 0 0 0 0 0 0 0 0 0 0 0 0 0 0 0 0 0 0 0 0 0 0 0 0 0 0 0 0 0 0 0 0 0 0 0 0 0 0 0 0 0 0 0 0 0 0 0 0 0 0 0 0 0 0 0 0 0 0 0 0 0 0 0 0 0 0 0 0 0 0 0 0 0 0 0 0 0 0 0 0 0 0 0 0 0 0 0 0 0 0 0 0 0 0 0 0 0 0 0 0 0 0 0 0 0 0 0 0 0 0 0 0 0 0 0 0 0 0 0 0 0 0 0 0 0 0 0 0 0 0 0 0 0 0 0 0 0 0 0 0 0 0 0 0 0 0 0 0 0 0 0 0 0 0 0 0 0 0 0 0 0 0 0 0 0 0 0 0 0 0 0 0 0 0 0 0 0 0 0 0 0 0 0 0 0 0 0 0 0 0 0 0 0 0 0 0 0 0 0 0 0 0 0 0 0 0 0 0 0 0 0 0 0 0 0 0 0 0 0 0 0 0 0 0 0 0 0 0 0 0 0 0 0 0 0 0 0 0 0 0 0 0 0 0 0 0 0 0 0 0 0 0 0 0 0 0 0 0 0 0 0 0 0 0 0 0 0 -0.00408498 0 
0.02 0.02 0.02 0.02 0.02 0.02 0.02 0.02 0.02 0.02 0.0199999 0.0199999 0.0199999 0.0199999 0.0199998 0.0199998 0.0199998 0.0199997 0.0199996 0.0199996 0.0199995 0.0199994 0.0199992 0.0199991 0.0199989 0.0199987 0.0199984 0.0199981 0.0199978 0.0199973 0.0199969 0.0199963 0.0199956 0.0199949 0.019994 0.019993 0.0199918 0.0199905 0.019989 0.0199873 0.0199854 0.0199833 0.0199809 0.0199783 0.0199753 0.0199721 0.0199685 0.0199646 0.0199602 0.0199555 0.0199503 0.0199446 0.0199384 0.0199317 0.0199244 0.0199164 0.0199077 0.0198983 0.0198881 0.0198771 0.0198651 0.0198522 0.0198382 0.0198231 0.0198068 0.0197892 0.0197704 0.0197501 0.0197283 0.019705 0.0196801 0.0196534 0.019625 0.0195946 0.0195624 0.019528 0.0194915 0.0194528 0.0194116 0.019368 0.0193218 0.0192727 0.0192208 0.0191656 0.0191071 0.0190449 0.0189787 0.0189083 0.018833 0.0187526 0.0186664 0.0185738 0.0184741 0.0183666 0.0182504 0.0181246 0.0179883 0.0178404 0.0176801 0.0175067 0.0173198 0.0171196 0.0169073 0.0166853 0.0164575 0.016229 0.016006 0.0157961 0.0156093 0.015457 0.0153477 0.0152869 0.0152835 0.0153492 0.015497 0.0157039 0.0157365 0.0154348 0.0149508 0.0143213 0.0137086 0.0131695 0.0127195 0.0122475 0.0117545 0.0111089 0.0104073 0.0095248 0.00834858 0.00671347 0.00439921 0.00116233 -0.00369778 -0.0071296 0 0 0 0 0 0 0 0 0 0 0 0 0 0 0 0 0 0 0 0 0 0 0 0 0 0 0 0 0 0 0 0 0 0 0 0 0 0 0 0 0 0 0 0 0 0 0 0 0 0 0 0 0 0 0 0 0 0 0 0 0 0 0 0 0 0 0 0 0 0 0 0 0 0 0 0 0 0 0 0 0 0 0 0 0 0 0 0 0 0 0 0 0 0 0 0 0 0 0 0 0 0 0 0 0 0 0 0 0 0 0 0 0 0 0 0 0 0 0 0 0 0 0 0 0 0 0 0 0 0 0 0 0 0 0 0 0 0 0 0 0 0 0 0 0 0 0 0 0 0 0 0 0 0 0 0 0 0 0 0 0 0 0 0 0 0 0 0 0 0 0 0 0 0 0 0 0 0 0 0 0 0 0 0 0 0 0 0 0 0 0 0 0 0 0 0 0 0 0 0 0 0 0 0 0 0 0 0 0 0 0 0 0 0 0 0 0 0 0 0 0 0 0 0 0 0 0 0 0 0 0 0 0 0 0 0 0 0 0 0 0 0 0 0 0 0 0 0 0 0 0 0 0 0 0 0 0 0 0 0 0 0 0 0 0 0 0 0 0 0 0 0 0 0 0 0 0 0 0 0 0 0 0 0 0 0 0 0 0 0 0 0 0 0 0 0 0 0 0 0 0 0 0 0 0 0 0 0 0 0 0 0 0 0 0 0 0 0 0 0 0 0 0 0 0 0 0 0 0 0 0 0 0 0 0 0 0 0 0 0 0 0 0 0 0 0 0 0 0 0 0 0 0 0 0 0 0 0 0 0 0 0 0 0 0 0 0 0 0 0 0 0 0 0 0 0 0 0 0 0 0 0 0 0 0 0 0 0 0 0 0 0 0 0 0 0 0 0 0 0 0 0 0 0 0 0 0 0 0 0 0 0 0 0 0 0 0 0 0 0 0 0 0 0 0 0 0 0 0 0 0 0 0 0 0 0 0 0 0 0 0 0 0 0 0 0 0 0 0 0 0 0 0 0 0 0 0 0 0 0 0 0 0 0 0 0 0 0 0 0 0 0 0 0 0 0 0 0 0 0 0 0 0 0 -0.0130577 -0.00680231 -4.33681e-19 
0.02 0.02 0.02 0.02 0.02 0.02 0.02 0.02 0.02 0.02 0.0199999 0.0199999 0.0199999 0.0199999 0.0199999 0.0199998 0.0199998 0.0199997 0.0199997 0.0199996 0.0199995 0.0199994 0.0199993 0.0199992 0.019999 0.0199988 0.0199985 0.0199983 0.0199979 0.0199975 0.0199971 0.0199965 0.0199959 0.0199952 0.0199944 0.0199934 0.0199923 0.0199911 0.0199897 0.0199881 0.0199863 0.0199843 0.0199821 0.0199796 0.0199768 0.0199737 0.0199704 0.0199666 0.0199626 0.0199581 0.0199532 0.0199478 0.019942 0.0199356 0.0199287 0.0199211 0.0199129 0.019904 0.0198944 0.0198839 0.0198725 0.0198602 0.0198469 0.0198325 0.019817 0.0198003 0.0197823 0.0197629 0.0197421 0.0197199 0.019696 0.0196704 0.0196432 0.019614 0.019583 0.01955 0.0195149 0.0194775 0.0194379 0.0193958 0.0193511 0.0193037 0.0192534 0.0192001 0.0191434 0.0190831 0.019019 0.0189506 0.0188776 0.0187995 0.0187158 0.0186258 0.0185289 0.0184243 0.0183111 0.0181885 0.0180554 0.0179109 0.0177541 0.0175843 0.0174009 0.0172043 0.0169953 0.0167764 0.016551 0.0163242 0.0161024 0.0158931 0.015706 0.0155517 0.0154383 0.0153716 0.0153621 0.0154256 0.0155614 0.015705 0.0157191 0.0153766 0.0147897 0.014073 0.0133854 0.0127819 0.0122061 0.0116711 0.0111021 0.0104712 0.00978157 0.00888829 0.00775453 0.00618567 0.00399939 0.000550944 -0.00369141 -0.00548877 0 0 0 0 0 0 0 0 0 0 0 0 0 0 0 0 0 0 0 0 0 0 0 0 0 0 0 0 0 0 0 0 0 0 0 0 0 0 0 0 0 0 0 0 0 0 0 0 0 0 0 0 0 0 0 0 0 0 0 0 0 0 0 0 0 0 0 0 0 0 0 0 0 0 0 0 0 0 0 0 0 0 0 0 0 0 0 0 0 0 0 0 0 0 0 0 0 0 0 0 0 0 0 0 0 0 0 0 0 0 0 0 0 0 0 0 0 0 0 0 0 0 0 0 0 0 0 0 0 0 0 0 0 0 0 0 0 0 0 0 0 0 0 0 0 0 0 0 0 0 0 0 0 0 0 0 0 0 0 0 0 0 0 0 0 0 0 0 0 0 0 0 0 0 0 0 0 0 0 0 0 0 0 0 0 0 0 0 0 0 0 0 0 0 0 0 0 0 0 0 0 0 0 0 0 0 0 0 0 0 0 0 0 0 0 0 0 0 0 0 0 0 0 0 0 0 0 0 0 0 0 0 0 0 0 0 0 0 0 0 0 0 0 0 0 0 0 0 0 0 0 0 0 0 0 0 0 0 0 0 0 0 0 0 0 0 0 0 0 0 0 0 0 0 0 0 0 0 0 0 0 0 0 0 0 0 0 0 0 0 0 0 0 0 0 0 0 0 0 0 0 0 0 0 0 0 0 0 0 0 0 0 0 0 0 0 0 0 0 0 0 0 0 0 0 0 0 0 0 0 0 0 0 0 0 0 0 0 0 0 0 0 0 0 0 0 0 0 0 0 0 0 0 0 0 0 0 0 0 0 0 0 0 0 0 0 0 0 0 0 0 0 0 0 0 0 0 0 0 0 0 0 0 0 0 0 0 0 0 0 0 0 0 0 0 0 0 0 0 0 0 0 0 0 0 0 0 0 0 0 0 0 0 0 0 0 0 0 0 0 0 0 0 0 0 0 0 0 0 0 0 0 0 0 0 0 0 0 0 0 0 0 0 0 0 0 0 0 0 0 0 0 0 0 0 0 0 0 0 0 0 0 0 0 0 0 0 0 0 0 0 0 0 0 0 0 0 0 0 0 0 0 -0.0282238 -0.0241711 -0.017216 -0.00937061 -2.1684e-19 
0.02 0.02 0.02 0.02 0.02 0.02 0.02 0.02 0.02 0.02 0.0199999 0.0199999 0.0199999 0.0199999 0.0199999 0.0199998 0.0199998 0.0199998 0.0199997 0.0199996 0.0199996 0.0199995 0.0199994 0.0199992 0.0199991 0.0199989 0.0199987 0.0199984 0.0199981 0.0199977 0.0199973 0.0199968 0.0199962 0.0199956 0.0199948 0.0199939 0.0199929 0.0199918 0.0199905 0.019989 0.0199873 0.0199855 0.0199834 0.019981 0.0199785 0.0199756 0.0199724 0.019969 0.0199652 0.019961 0.0199564 0.0199514 0.0199459 0.01994 0.0199335 0.0199264 0.0199188 0.0199104 0.0199014 0.0198915 0.0198809 0.0198693 0.0198568 0.0198433 0.0198287 0.0198129 0.0197959 0.0197776 0.019758 0.0197369 0.0197143 0.01969 0.0196641 0.0196364 0.0196069 0.0195755 0.0195419 0.0195063 0.0194684 0.0194281 0.0193853 0.0193399 0.0192916 0.0192404 0.0191859 0.0191279 0.0190662 0.0190003 0.0189299 0.0188546 0.0187737 0.0186867 0.0185929 0.0184915 0.0183817 0.0182626 0.0181332 0.0179925 0.0178396 0.0176736 0.0174942 0.0173014 0.0170962 0.0168806 0.0166579 0.016433 0.016212 0.0160027 0.0158145 0.0156578 0.0155412 0.0154703 0.0154533 0.0155018 0.0156076 0.0157033 0.015644 0.0153233 0.0147006 0.0139574 0.0131878 0.0124657 0.0117911 0.0111475 0.0105152 0.00984805 0.00911784 0.00821334 0.00708019 0.00555091 0.00328288 -0.000175721 -0.00663587 -0.0106275 0 0 0 0 0 -0.0331546 -0.0356601 -0.0456531 0 0 0 0 0 0 0 0 0 0 0 0 0 0 0 0 0 0 0 0 0 0 0 0 0 0 0 0 0 0 0 0 0 0 0 0 0 0 0 0 0 0 0 0 0 0 0 0 0 0 0 0 0 0 0 0 0 0 0 0 0 0 0 0 0 0 0 0 0 0 0 0 0 0 0 0 0 0 0 0 0 0 0 0 0 0 0 0 0 0 0 0 0 0 0 0 0 0 0 0 0 0 0 0 0 0 0 0 0 0 0 0 0 0 0 0 0 0 0 0 0 0 0 0 0 0 0 0 0 0 0 0 0 0 0 0 0 0 0 0 0 0 0 0 0 0 0 0 0 0 0 0 0 0 0 0 0 0 0 0 0 0 0 0 0 0 0 0 0 0 0 0 0 0 0 0 0 0 0 0 0 0 0 0 0 0 0 0 0 0 0 0 0 0 0 0 0 0 0 0 0 0 0 0 0 0 0 0 0 0 0 0 0 0 0 0 0 0 0 0 0 0 0 0 0 0 0 0 0 0 0 0 0 0 0 0 0 0 0 0 0 0 0 0 0 0 0 0 0 0 0 0 0 0 0 0 0 0 0 0 0 0 0 0 0 0 0 0 0 0 0 0 0 0 0 0 -0.0500716 -0.0530611 -0.0532891 -0.0527332 -0.0519336 -0.051077 -0.0502349 -0.0494291 -0.0486681 -0.0479487 -0.0472665 -0.0466284 -0.046135 -0.046592 -0.0534707 0 0 0 0 0 0 0 0 0 0 0 0 0 0 0 0 0 0 0 0 0 0 0 0 0 0 0 0 0 0 0 0 0 0 0 0 0 0 0 0 0 0 0 0 0 0 0 0 0 0 0 0 0 0 0 0 0 0 0 0 0 0 0 0 0 0 0 0 0 0 0 0 0 0 0 0 0 0 0 0 0 0 0 0 0 0 0 0 0 0 0 0 0 0 0 0 0 0 0 0 0 0 0 0 0 0 0 0 0 0 0 0 0 0 0 0 0 0 0 0 -0.0375626 -0.0417971 -0.0432483 -0.0436929 -0.0437889 -0.0437613 -0.0436899 -0.0436001 -0.0434992 -0.0433896 -0.0432732 -0.0431512 -0.0430252 -0.0428962 -0.0427655 -0.0426343 -0.0425036 -0.0423744 -0.0422479 -0.042125 -0.0420067 -0.0418939 -0.0417876 -0.0416885 -0.0415976 -0.0415157 -0.0414433 -0.0413812 -0.0413299 -0.0412897 -0.0412609 -0.0412438 -0.0412382 -0.0412441 -0.0412612 -0.0412891 -0.0413273 -0.0413753 -0.0414322 -0.0414972 -0.0415695 -0.0416479 -0.0417315 -0.0418191 -0.0419093 -0.042001 -0.0420926 -0.0421827 -0.0422695 -0.0423514 -0.0424264 -0.0424922 -0.042546 -0.042584 -0.0426008 -0.0425878 -0.04253 -0.0423993 -0.0421299 -0.041491 -0.040046 -0.0381893 -0.035529 -0.0312811 -0.0257773 -0.0189776 -0.0107551 -2.1684e-19 
0.02 0.02 0.02 0.02 0.02 0.02 0.02 0.02 0.02 0.02 0.02 0.0199999 0.0199999 0.0199999 0.0199999 0.0199999 0.0199998 0.0199998 0.0199997 0.0199997 0.0199996 0.0199995 0.0199994 0.0199993 0.0199992 0.019999 0.0199988 0.0199986 0.0199983 0.019998 0.0199976 0.0199971 0.0199966 0.019996 0.0199953 0.0199945 0.0199936 0.0199925 0.0199913 0.01999 0.0199884 0.0199867 0.0199848 0.0199826 0.0199803 0.0199776 0.0199747 0.0199715 0.019968 0.0199641 0.0199599 0.0199553 0.0199503 0.0199448 0.0199388 0.0199322 0.0199252 0.0199174 0.0199091 0.0198999 0.0198901 0.0198793 0.0198677 0.0198552 0.0198416 0.0198269 0.0198111 0.019794 0.0197756 0.0197559 0.0197347 0.019712 0.0196876 0.0196616 0.0196338 0.0196041 0.0195725 0.0195388 0.0195029 0.0194647 0.0194241 0.0193809 0.019335 0.0192862 0.0192342 0.0191788 0.0191198 0.0190567 0.0189892 0.0189169 0.0188391 0.0187554 0.018665 0.0185671 0.018461 0.0183456 0.0182201 0.0180833 0.0179344 0.0177726 0.0175974 0.0174087 0.0172075 0.0169954 0.0167757 0.0165527 0.0163325 0.0161227 0.0159329 0.0157735 0.0156538 0.0155805 0.0155587 0.0155911 0.0156604 0.0157027 0.015607 0.0152638 0.0146629 0.0138853 0.0130507 0.0122339 0.0114627 0.0107288 0.0100067 0.00926855 0.00847261 0.00752683 0.00633637 0.00477363 0.00240453 -0.00160798 -0.0091522 -0.0263284 0 0 0 0 -0.0290018 -0.0322938 -0.0366913 -0.0424267 -0.0505163 -0.0588722 0 0 0 0 0 0 0 0 0 0 0 0 0 0 0 0 0 0 0 0 0 0 0 0 0 0 0 0 0 0 0 0 0 0 0 0 0 0 0 0 0 0 0 0 0 0 0 0 0 0 0 0 0 0 0 0 0 0 0 0 0 0 0 0 0 0 0 0 0 0 0 0 0 0 0 0 0 0 0 0 0 0 0 0 0 0 0 0 0 0 0 0 0 0 0 0 0 0 0 0 0 0 0 0 0 0 0 0 0 0 0 0 0 0 0 0 0 0 0 0 0 0 0 0 0 0 0 0 0 0 0 0 0 0 0 0 0 0 0 0 0 0 0 0 0 0 0 0 0 0 0 0 0 0 0 0 0 0 0 0 0 0 0 0 0 0 0 0 0 0 0 0 0 0 0 0 0 0 0 0 0 0 0 0 0 0 0 0 0 0 0 0 0 0 0 0 0 0 0 0 0 0 0 0 0 0 0 0 0 0 0 0 0 0 0 0 0 0 0 0 0 0 0 0 0 0 0 0 0 0 0 0 0 0 0 0 0 0 0 0 0 0 0 0 0 0 0 0 0 0 0 0 0 0 0 0 0 0 0 0 0 0 0 0 -0.0590551 -0.0592803 -0.0629657 -0.0649138 -0.0653607 -0.0648602 -0.0631249 -0.0615756 -0.0600121 -0.0581892 -0.0556649 -0.0545344 -0.0537301 -0.0529009 -0.0520352 -0.0511657 -0.0503221 -0.0495135 -0.0487473 -0.0480215 -0.0473337 -0.0466981 -0.0462264 -0.0463409 -0.0474571 -0.0470462 -0.0458381 -0.0457733 -0.0461253 -0.0467258 -0.0474581 -0.0481732 -0.0486413 -0.0487517 -0.0491515 -0.0510472 -0.0570516 -0.0557019 0 0 0 0 0 0 0 0 0 0 0 0 0 0 0 0 0 0 0 0 0 0 0 0 0 0 0 0 0 0 0 0 0 0 0 0 0 0 0 0 0 -0.05167 -0.0542427 -0.0546136 -0.0543785 -0.0539419 -0.0533226 -0.0524809 -0.0514466 -0.0506174 -0.0500175 -0.0495266 -0.0491137 -0.0487671 -0.0484799 -0.0482472 -0.0480647 -0.0479288 -0.047836 -0.047783 -0.0477664 -0.0477828 -0.0478286 -0.0478998 -0.0479923 -0.0481015 -0.0482229 -0.0483519 -0.0484841 -0.0486153 -0.0487417 -0.0488598 -0.0489668 -0.04906 -0.0491373 -0.0491969 -0.0492371 -0.0492565 -0.049254 -0.0492289 -0.049181 -0.0491103 -0.0490177 -0.0489043 -0.0487718 -0.0486218 -0.0484562 -0.0482763 -0.0480835 -0.0478786 -0.0476619 -0.0474339 -0.0471948 -0.046945 -0.0466851 -0.0464156 -0.0461369 -0.0458493 -0.0455531 -0.0452478 -0.0449314 -0.0445974 -0.0442326 -0.0438158 -0.0433106 -0.0426828 -0.0420532 -0.0417875 -0.0424687 -0.0432904 -0.0436811 -0.0437879 -0.0437692 -0.0437007 -0.0436116 -0.0435107 -0.0434012 -0.0432847 -0.0431628 -0.0430367 -0.0429077 -0.042777 -0.0426458 -0.0425152 -0.0423862 -0.0422599 -0.0421372 -0.0420191 -0.0419066 -0.0418006 -0.0417018 -0.0416111 -0.0415293 -0.041457 -0.0413948 -0.0413432 -0.0413026 -0.0412732 -0.0412553 -0.0412487 -0.0412535 -0.0412694 -0.041296 -0.0413328 -0.0413792 -0.0414346 -0.0414981 -0.0415689 -0.0416459 -0.0417281 -0.0418144 -0.0419036 -0.0419943 -0.0420851 -0.0421746 -0.0422613 -0.0423434 -0.042419 -0.042486 -0.0425417 -0.0425824 -0.0426028 -0.0425939 -0.0425393 -0.0424036 -0.042093 -0.0414269 -0.0401907 -0.0383478 -0.0356075 -0.0316241 -0.026443 -0.0199525 -0.011581 -1.95156e-18 
0.02 0.02 0.02 0.02 0.02 0.02 0.02 0.02 0.02 0.02 0.02 0.02 0.0199999 0.0199999 0.0199999 0.0199999 0.0199999 0.0199998 0.0199998 0.0199997 0.0199997 0.0199996 0.0199995 0.0199994 0.0199993 0.0199991 0.019999 0.0199988 0.0199985 0.0199982 0.0199979 0.0199975 0.019997 0.0199965 0.0199958 0.0199951 0.0199943 0.0199933 0.0199922 0.019991 0.0199896 0.0199881 0.0199863 0.0199844 0.0199822 0.0199798 0.0199772 0.0199742 0.019971 0.0199675 0.0199637 0.0199595 0.0199549 0.0199499 0.0199444 0.0199385 0.019932 0.019925 0.0199173 0.019909 0.0199 0.0198902 0.0198795 0.019868 0.0198555 0.0198421 0.0198275 0.0198118 0.0197948 0.0197766 0.019757 0.019736 0.0197134 0.0196892 0.0196634 0.0196357 0.0196062 0.0195746 0.019541 0.0195052 0.019467 0.0194263 0.019383 0.0193368 0.0192876 0.0192351 0.0191791 0.019119 0.0190547 0.0189856 0.0189112 0.0188309 0.0187441 0.0186499 0.0185475 0.018436 0.0183144 0.0181817 0.0180369 0.0178793 0.0177084 0.017524 0.0173268 0.0171184 0.0169017 0.0166808 0.0164613 0.0162509 0.016059 0.015896 0.0157722 0.0156955 0.0156698 0.0156902 0.01573 0.0157237 0.0155816 0.0152235 0.0146285 0.0138504 0.0129769 0.0120862 0.0112182 0.0103864 0.00957443 0.00875295 0.00787068 0.00684139 0.00554056 0.00385755 0.00137933 -0.00313125 -0.0110823 -0.027961 0 0 0 -0.0260136 -0.0299311 -0.032995 -0.0369164 -0.0411018 -0.0469152 -0.0540363 -0.0676528 0 0 0 0 0 0 0 0 0 0 0 0 0 0 0 0 0 0 0 0 0 0 0 0 0 0 0 0 0 0 0 0 0 0 0 0 0 0 0 0 0 0 0 0 0 0 0 0 0 0 0 0 0 0 0 0 0 0 0 0 0 0 0 0 0 0 0 0 0 0 0 0 0 0 0 0 0 0 0 0 0 0 0 0 0 0 0 0 0 0 0 0 0 0 0 0 -0.067103 -0.0670383 -0.0714662 -0.0743755 -0.0823562 0 0 0 0 0 0 0 0 0 0 0 0 0 0 0 0 0 0 0 0 0 0 0 0 0 0 0 0 0 0 0 0 0 0 0 0 0 0 0 0 0 0 0 0 0 0 0 0 0 0 0 0 0 0 0 0 0 0 0 0 0 0 0 0 0 0 0 0 0 0 0 0 0 0 0 0 0 0 0 0 0 0 0 0 0 0 0 0 0 0 0 0 0 0 0 0 0 0 0 0 0 0 0 0 0 0 0 0 0 0 0 0 0 0 0 0 0 0 0 0 0 0 0 0 0 0 0 0 0 0 0 0 0 0 0 0 0 0 0 0 0 0 0 0 0 0 0 0 0 0 0 0 0 0 0 0 0 0 0 0 -0.0559236 -0.0550626 -0.0562334 -0.0612186 -0.063068 -0.0644867 -0.0648786 -0.0644292 -0.0630916 -0.0616111 -0.0599571 -0.0581436 -0.0562374 -0.0549257 -0.0539043 -0.0529764 -0.0520854 -0.0512203 -0.0503881 -0.0495916 -0.0488353 -0.0481157 -0.0474347 -0.0468272 -0.0464261 -0.0463939 -0.046679 -0.0464589 -0.0459879 -0.0459609 -0.0462557 -0.046751 -0.0473293 -0.0478795 -0.0483276 -0.0486713 -0.049322 -0.0509038 -0.0538358 -0.0556379 -0.0565146 -0.0568087 -0.0563672 -0.0572522 -0.0673174 0 0 0 0 0 0 0 0 0 0 0 0 0 0 0 0 0 0 0 0 0 0 0 0 0 0 0 0 -0.0599256 -0.0618029 -0.0618496 -0.0606634 -0.0595285 -0.0586733 -0.057715 -0.0563361 -0.0552428 -0.0549351 -0.0547629 -0.0544116 -0.053903 -0.0532371 -0.052429 -0.0515533 -0.050807 -0.0501967 -0.0496906 -0.0492641 -0.0489056 -0.0486075 -0.0483644 -0.0481719 -0.0480261 -0.0479236 -0.0478608 -0.0478344 -0.047841 -0.0478768 -0.047938 -0.0480203 -0.0481195 -0.0482311 -0.0483509 -0.0484746 -0.0485982 -0.0487181 -0.048831 -0.048934 -0.0490244 -0.0491 -0.0491588 -0.0491989 -0.0492188 -0.0492174 -0.0491937 -0.0491476 -0.0490792 -0.0489891 -0.0488784 -0.0487486 -0.0486011 -0.0484374 -0.0482591 -0.0480671 -0.0478624 -0.0476458 -0.0474179 -0.0471795 -0.046931 -0.0466726 -0.0464039 -0.0461239 -0.0458313 -0.0455238 -0.0451987 -0.0448514 -0.0444754 -0.0440646 -0.0436128 -0.0431393 -0.042704 -0.0424179 -0.0425454 -0.0430084 -0.0434475 -0.0437057 -0.043784 -0.0437615 -0.0436928 -0.0436036 -0.0435028 -0.0433937 -0.0432779 -0.0431568 -0.0430318 -0.042904 -0.0427746 -0.0426447 -0.0425154 -0.0423879 -0.0422631 -0.042142 -0.0420256 -0.0419148 -0.0418104 -0.0417133 -0.0416242 -0.0415439 -0.0414729 -0.0414119 -0.0413613 -0.0413214 -0.0412925 -0.0412748 -0.0412682 -0.0412727 -0.041288 -0.0413137 -0.0413496 -0.0413948 -0.0414489 -0.0415111 -0.0415804 -0.041656 -0.0417368 -0.0418218 -0.0419096 -0.0419991 -0.0420889 -0.0421774 -0.0422632 -0.0423445 -0.0424195 -0.0424859 -0.0425412 -0.0425815 -0.0426011 -0.0425899 -0.0425274 -0.0423655 -0.0420072 -0.0413085 -0.0401081 -0.0382649 -0.0355584 -0.0317916 -0.0268897 -0.020594 -0.0121126 -6.50521e-19 