# vtk DataFile Version 2.0
iteration 2430
ASCII

DATASET STRUCTURED_POINTS
DIMENSIONS 621 64 1
ORIGIN 0 0 0
SPACING 0.00161031 0.00161031 0.00161031

POINT_DATA 39744
SCALARS P float 1
LOOKUP_TABLE default
0 0 0 0 0 0 0 0 0 0 0 0 0 0 0 0 0 0 0 0 0 0 0 0 0 0 0 0 0 0 0 0 0 0 0 0 0 0 0 0 0 0 0 0 0 0 0 0 0 0 0 0 0 0 0 0 0 0 0 0 0 0 0 0 0 0 0 0 0 0 0 0 0 0 0 0 0 0 0 0 0 0 0 0 0 0 0 0 0 0 0 0 0 0 0 0 0 0 0 0 0 0 0 0 0 0 0 0 0 0 0 0 0 0 0 0 0 0 0 0 0 0 0 0 0 0 0 0 0 0 0 0 0 0 0 0 0 0 0 0 0 0 0 0 0 0 0 0 0 0 0 0 0 0 0 0 0 0 0 0 0 0 0 0 0 0 0 0 0 0 0 0 0 0 0 0 0 0 0 0 0 0 0 0 0 0 0 0 0 0 0 0 0 0 0 0 0 0 0 0 0 0 0 0 0 0 0 0 0 0 0 0 0 0 0 0 0 0 0 0 0 0 0 0 0 0 0 0 0 0 0 0 0 0 0 0 0 0 0 0 0 0 0 0 0 0 0 0 0 0 0 0 0 0 0 0 0 0 0 0 0 0 0 0 0 0 0 0 0 0 0 0 0 0 0 0 0 0 0 0 0 0 0 0 0 0 0 0 0 0 0 0 0 0 0 0 0 0 0 0 0 0 0 0 0 0 0 0 0 0 0 0 0 0 0 0 0 0 0 0 0 0 0 0 0 0 0 0 0 0 0 0 0 0 0 0 0 0 0 0 0 0 0 0 0 0 0 0 0 0 0 0 0 0 0 0 0 0 0 0 0 0 0 0 0 0 0 0 0 0 0 0 0 0 0 0 0 0 0 0 0 0 0 0 0 0 0 0 0 0 0 0 0 0 0 0 0 0 0 0 0 0 0 0 0 0 0 0 0 0 0 0 0 0 0 0 0 0 0 0 0 0 0 0 0 0 0 0 0 0 0 0 0 0 0 0 0 0 0 0 0 0 0 0 0 0 0 0 0 0 0 0 0 0 0 0 0 0 0 0 0 0 0 0 0 0 0 0 0 0 0 0 0 0 0 0 0 0 0 0 0 0 0 0 0 0 0 0 0 0 0 0 0 0 0 0 0 0 0 0 0 0 0 0 0 0 0 0 0 0 0 0 0 0 0 0 0 0 0 0 0 0 0 0 0 0 0 0 0 0 0 0 0 0 0 0 0 0 0 0 0 0 0 0 0 0 0 0 0 0 0 0 0 0 0 0 0 0 0 0 0 0 0 0 0 0 0 0 0 0 0 0 0 0 0 0 0 0 0 0 0 0 0 0 0 0 0 0 0 0 0 0 0 0 0 0 0 0 0 0 0 0 0 0 0 0 0 0 0 0 0 0 0 0 0 0 0 0 0 0 0 
0.0204711 0.0205173 0.0205583 0.0206055 0.0206546 0.020704 0.0207531 0.0208016 0.0208495 0.0208966 0.0209429 0.0209883 0.0210328 0.0210763 0.0211188 0.0211603 0.0212007 0.0212401 0.0212784 0.0213156 0.0213516 0.0213865 0.0214203 0.0214529 0.0214843 0.0215145 0.0215434 0.0215712 0.0215976 0.0216228 0.0216468 0.0216694 0.0216907 0.0217107 0.0217293 0.0217466 0.0217625 0.0217771 0.0217902 0.021802 0.0218124 0.0218214 0.021829 0.0218352 0.02184 0.0218433 0.0218453 0.0218459 0.0218451 0.021843 0.0218394 0.0218345 0.0218283 0.0218207 0.0218118 0.0218016 0.0217901 0.0217774 0.0217635 0.0217483 0.0217319 0.0217144 0.0216958 0.0216761 0.0216553 0.0216334 0.0216106 0.0215868 0.0215621 0.0215366 0.0215102 0.0214829 0.021455 0.0214263 0.021397 0.0213671 0.0213366 0.0213055 0.0212741 0.0212422 0.0212099 0.0211773 0.0211445 0.0211115 0.0210783 0.021045 0.0210116 0.0209783 0.020945 0.0209118 0.0208788 0.020846 0.0208135 0.0207813 0.0207494 0.0207179 0.0206869 0.0206564 0.0206264 0.020597 0.0205682 0.02054 0.0205125 0.0204857 0.0204596 0.0204343 0.0204098 0.020386 0.0203631 0.020341 0.0203197 0.0202992 0.0202796 0.0202609 0.020243 0.0202259 0.0202096 0.0201942 0.0201796 0.0201658 0.0201527 0.0201404 0.0201289 0.020118 0.0201079 0.0200984 0.0200896 0.0200814 0.0200738 0.0200668 0.0200603 0.0200543 0.0200488 0.0200438 0.0200392 0.020035 0.0200311 0.0200277 0.0200245 0.0200217 0.0200191 0.0200168 0.0200148 0.0200129 0.0200113 0.0200098 0.0200085 0.0200074 0.0200064 0.0200055 0.0200047 0.0200041 0.0200035 0.0200029 0.0200025 0.0200021 0.0200018 0.0200015 0.0200013 0.0200011 0.0200009 0.0200007 0.0200006 0.0200005 0.0200004 0.0200003 0.0200003 0.0200002 0.0200002 0.0200001 0.0200001 0.0200001 0.0200001 0.0200001 0.02 0.02 0.02 0.02 0.02 0.02 0.02 0.02 0.02 0.02 0.02 0.02 0.02 0.02 0.02 0.02 0.02 0.02 0.02 0.02 0.02 0.02 0.02 0.02 0.02 0.02 0.02 0.02 0.02 0.02 0.02 0.02 0.02 0.02 0.02 0.02 0.02 0.02 0.02 0.0199999 0.0199999 0.0199999 0.0199999 0.0199999 0.0199999 0.0199999 0.0199999 0.0199999 0.0199999 0.0199999 0.0199999 0.0199999 0.0199998 0.0199998 0.0199998 0.0199998 0.0199998 0.0199998 0.0199998 0.0199997 0.0199997 0.0199997 0.0199997 0.0199996 0.0199996 0.0199996 0.0199996 0.0199995 0.0199995 0.0199995 0.0199994 0.0199994 0.0199993 0.0199993 0.0199992 0.0199992 0.0199991 0.0199991 0.019999 0.019999 0.0199989 0.0199988 0.0199988 0.0199987 0.0199986 0.0199985 0.0199985 0.0199984 0.0199983 0.0199982 0.0199981 0.019998 0.0199979 0.0199978 0.0199977 0.0199976 0.0199975 0.0199974 0.0199973 0.0199972 0.0199971 0.019997 0.0199969 0.0199968 0.0199967 0.0199966 0.0199965 0.0199965 0.0199964 0.0199963 0.0199963 0.0199962 0.0199962 0.0199961 0.0199961 0.0199961 0.0199961 0.0199962 0.0199962 0.0199963 0.0199964 0.0199965 0.0199966 0.0199968 0.019997 0.0199972 0.0199975 0.0199978 0.0199981 0.0199985 0.0199989 0.0199994 0.0199999 0.0200004 0.020001 0.0200017 0.0200024 0.0200032 0.020004 0.0200049 0.0200059 0.0200069 0.0200081 0.0200092 0.0200105 0.0200118 0.0200133 0.0200148 0.0200164 0.0200181 0.0200198 0.0200217 0.0200237 0.0200257 0.0200279 0.0200301 0.0200325 0.0200349 0.0200375 0.0200401 0.0200429 0.0200457 0.0200487 0.0200518 0.020055 0.0200583 0.0200617 0.0200652 0.0200688 0.0200725 0.0200763 0.0200803 0.0200843 0.0200884 0.0200926 0.020097 0.0201014 0.0201059 0.0201104 0.0201151 0.0201199 0.0201247 0.0201296 0.0201346 0.0201396 0.0201447 0.0201499 0.0201551 0.0201604 0.0201657 0.020171 0.0201764 0.0201818 0.0201873 0.0201927 0.0201982 0.0202037 0.0202092 0.0202147 0.0202202 0.0202257 0.0202311 0.0202366 0.020242 0.0202474 0.0202527 0.020258 0.0202633 0.0202685 0.0202737 0.0202788 0.0202839 0.0202889 0.0202939 0.0202988 0.0203036 0.0203083 0.020313 0.0203176 0.0203222 0.0203267 0.0203311 0.0203354 0.0203397 0.0203438 0.020348 0.020352 0.020356 0.0203599 0.0203638 0.0203676 0.0203714 0.0203751 0.0203787 0.0203823 0.0203859 0.0203894 0.0203928 0.0203963 0.0203997 0.0204031 0.0204064 0.0204097 0.0204131 0.0204164 0.0204197 0.020423 0.0204262 0.0204295 0.0204328 0.0204361 0.0204394 0.0204427 0.020446 0.0204493 0.0204527 0.020456 0.0204594 0.0204627 0.0204661 0.0204695 0.0204729 0.0204763 0.0204797 0.0204831 0.0204864 0.0204898 0.0204932 0.0204965 0.0204998 0.0205031 0.0205063 0.0205094 0.0205125 0.0205156 0.0205185 0.0205214 0.0205241 0.0205268 0.0205293 0.0205317 0.0205339 0.0205359 0.0205378 0.0205395 0.020541 0.0205423 0.0205433 0.0205441 0.0205446 0.0205448 0.0205448 0.0205444 0.0205437 0.0205426 0.0205412 0.0205394 0.0205372 0.0205346 0.0205316 0.0205281 0.0205242 0.0205198 0.0205149 0.0205094 0.0205035 0.0204969 0.0204899 0.0204822 0.0204739 0.0204649 0.0204554 0.0204451 0.0204342 0.0204226 0.0204104 0.0203974 0.0203837 0.0203692 0.0203541 0.0203382 0.0203215 0.0203042 0.020286 0.0202672 0.0202476 0.0202272 0.0202062 0.0201844 0.0201618 0.0201386 0.0201147 0.0200901 0.0200648 0.0200388 0.0200122 0.0199849 0.019957 0.0199285 0.0198994 0.0198697 0.0198395 0.0198087 0.0197775 0.0197457 0.0197135 0.0196809 0.0196479 0.0196145 0.0195809 0.019547 0.0195129 0.0194786 0.0194442 0.0194098 0.0193754 0.019341 0.0193067 0.0192726 0.0192388 0.0192053 0.0191723 0.0191398 0.0191079 0.0190769 0.0190468 0.0190178 0.0189902 0.0189642 0.0189399 0.0189176 0.0188975 0.0188799 0.0188648 0.0188526 0.0188433 0.018837 0.0188339 0.018834 0.018837 0.0188429 0.0188511 0.0188605 0.0188693 0.0188743 0.0188696 0.0188518 0.0188258 0.0188016 0.018769 0.0187228 0.0186589 0.0185739 0.0184645 0.0183275 0.01816 0.0179589 0.017721 0.0174434 0.0171238 0.0167613 0.0163577 0.0159197 0.0154624 0.0150134 0.0146176 0.0144305 0.0154345 0 0 0 0 0 0 0 0 0 0 0 0 0 0 0 0 0 0 0 0 0 0 0 0 0 0 0 0 0 0 0 0 0 0 0 0 0 0 0 
0.0204711 0.0205187 0.0205645 0.0206123 0.020661 0.02071 0.0207588 0.0208072 0.0208548 0.0209018 0.0209479 0.0209932 0.0210375 0.0210809 0.0211233 0.0211646 0.021205 0.0212442 0.0212824 0.0213194 0.0213554 0.0213902 0.0214238 0.0214562 0.0214875 0.0215176 0.0215464 0.021574 0.0216003 0.0216254 0.0216492 0.0216716 0.0216928 0.0217126 0.0217311 0.0217483 0.0217641 0.0217785 0.0217915 0.0218032 0.0218134 0.0218223 0.0218297 0.0218358 0.0218404 0.0218437 0.0218455 0.021846 0.021845 0.0218427 0.0218391 0.021834 0.0218276 0.0218199 0.0218109 0.0218006 0.021789 0.0217762 0.0217621 0.0217468 0.0217303 0.0217127 0.0216939 0.0216741 0.0216532 0.0216312 0.0216083 0.0215844 0.0215596 0.0215339 0.0215074 0.0214801 0.0214521 0.0214233 0.0213939 0.0213639 0.0213333 0.0213022 0.0212707 0.0212387 0.0212064 0.0211738 0.0211409 0.0211078 0.0210746 0.0210413 0.0210079 0.0209745 0.0209412 0.0209081 0.0208751 0.0208423 0.0208098 0.0207776 0.0207457 0.0207143 0.0206833 0.0206528 0.0206229 0.0205935 0.0205648 0.0205367 0.0205092 0.0204825 0.0204565 0.0204313 0.0204069 0.0203832 0.0203604 0.0203383 0.0203172 0.0202968 0.0202773 0.0202587 0.0202409 0.0202239 0.0202077 0.0201924 0.0201779 0.0201641 0.0201512 0.020139 0.0201275 0.0201168 0.0201067 0.0200974 0.0200886 0.0200805 0.020073 0.020066 0.0200596 0.0200537 0.0200482 0.0200432 0.0200387 0.0200345 0.0200307 0.0200273 0.0200242 0.0200214 0.0200189 0.0200166 0.0200146 0.0200127 0.0200111 0.0200097 0.0200084 0.0200073 0.0200063 0.0200054 0.0200047 0.020004 0.0200034 0.0200029 0.0200025 0.0200021 0.0200018 0.0200015 0.0200012 0.020001 0.0200009 0.0200007 0.0200006 0.0200005 0.0200004 0.0200003 0.0200003 0.0200002 0.0200002 0.0200001 0.0200001 0.0200001 0.0200001 0.0200001 0.02 0.02 0.02 0.02 0.02 0.02 0.02 0.02 0.02 0.02 0.02 0.02 0.02 0.02 0.02 0.02 0.02 0.02 0.02 0.02 0.02 0.02 0.02 0.02 0.02 0.02 0.02 0.02 0.02 0.02 0.02 0.02 0.02 0.02 0.02 0.02 0.02 0.02 0.02 0.0199999 0.0199999 0.0199999 0.0199999 0.0199999 0.0199999 0.0199999 0.0199999 0.0199999 0.0199999 0.0199999 0.0199999 0.0199999 0.0199998 0.0199998 0.0199998 0.0199998 0.0199998 0.0199998 0.0199998 0.0199997 0.0199997 0.0199997 0.0199997 0.0199996 0.0199996 0.0199996 0.0199996 0.0199995 0.0199995 0.0199995 0.0199994 0.0199994 0.0199993 0.0199993 0.0199992 0.0199992 0.0199991 0.0199991 0.019999 0.019999 0.0199989 0.0199988 0.0199988 0.0199987 0.0199986 0.0199986 0.0199985 0.0199984 0.0199983 0.0199982 0.0199981 0.019998 0.0199979 0.0199978 0.0199977 0.0199976 0.0199975 0.0199974 0.0199973 0.0199972 0.0199971 0.019997 0.0199969 0.0199968 0.0199967 0.0199967 0.0199966 0.0199965 0.0199964 0.0199963 0.0199963 0.0199962 0.0199962 0.0199962 0.0199961 0.0199961 0.0199961 0.0199962 0.0199962 0.0199963 0.0199964 0.0199965 0.0199966 0.0199968 0.019997 0.0199972 0.0199975 0.0199978 0.0199981 0.0199985 0.0199989 0.0199993 0.0199998 0.0200004 0.020001 0.0200016 0.0200023 0.0200031 0.020004 0.0200048 0.0200058 0.0200068 0.0200079 0.0200091 0.0200104 0.0200117 0.0200131 0.0200146 0.0200162 0.0200179 0.0200196 0.0200215 0.0200234 0.0200255 0.0200276 0.0200299 0.0200322 0.0200346 0.0200372 0.0200398 0.0200426 0.0200454 0.0200484 0.0200514 0.0200546 0.0200579 0.0200613 0.0200648 0.0200684 0.0200721 0.0200759 0.0200798 0.0200838 0.0200879 0.0200921 0.0200964 0.0201008 0.0201053 0.0201099 0.0201145 0.0201193 0.0201241 0.020129 0.020134 0.020139 0.0201441 0.0201492 0.0201545 0.0201597 0.020165 0.0201704 0.0201758 0.0201812 0.0201866 0.0201921 0.0201976 0.020203 0.0202085 0.020214 0.0202195 0.020225 0.0202305 0.0202359 0.0202414 0.0202468 0.0202521 0.0202575 0.0202628 0.020268 0.0202732 0.0202784 0.0202834 0.0202885 0.0202935 0.0202984 0.0203032 0.020308 0.0203127 0.0203174 0.0203219 0.0203264 0.0203309 0.0203352 0.0203395 0.0203438 0.0203479 0.020352 0.020356 0.02036 0.0203639 0.0203677 0.0203715 0.0203752 0.0203789 0.0203825 0.0203861 0.0203896 0.0203931 0.0203966 0.0204 0.0204034 0.0204068 0.0204101 0.0204134 0.0204168 0.0204201 0.0204234 0.0204266 0.0204299 0.0204332 0.0204365 0.0204398 0.0204431 0.0204464 0.0204497 0.020453 0.0204563 0.0204596 0.020463 0.0204663 0.0204697 0.020473 0.0204764 0.0204797 0.0204831 0.0204864 0.0204897 0.020493 0.0204963 0.0204996 0.0205028 0.0205059 0.020509 0.0205121 0.0205151 0.020518 0.0205208 0.0205235 0.020526 0.0205285 0.0205308 0.020533 0.020535 0.0205369 0.0205385 0.02054 0.0205412 0.0205422 0.0205429 0.0205434 0.0205436 0.0205436 0.0205432 0.0205425 0.0205414 0.02054 0.0205383 0.0205361 0.0205336 0.0205306 0.0205272 0.0205233 0.020519 0.0205142 0.0205088 0.020503 0.0204966 0.0204896 0.020482 0.0204739 0.0204651 0.0204557 0.0204456 0.0204348 0.0204234 0.0204113 0.0203984 0.0203849 0.0203706 0.0203556 0.0203399 0.0203234 0.0203062 0.0202883 0.0202696 0.0202502 0.0202301 0.0202092 0.0201876 0.0201653 0.0201422 0.0201185 0.0200941 0.0200689 0.0200432 0.0200167 0.0199897 0.019962 0.0199337 0.0199047 0.0198752 0.0198452 0.0198146 0.0197835 0.0197519 0.0197198 0.0196874 0.0196545 0.0196213 0.0195878 0.019554 0.01952 0.0194858 0.0194515 0.0194172 0.0193828 0.0193485 0.0193143 0.0192803 0.0192465 0.0192131 0.0191801 0.0191476 0.0191158 0.0190847 0.0190546 0.0190257 0.0189981 0.018972 0.0189477 0.0189254 0.0189053 0.0188875 0.0188724 0.01886 0.0188505 0.0188441 0.0188407 0.0188404 0.0188429 0.0188481 0.018855 0.0188625 0.0188684 0.01887 0.018865 0.0188507 0.0188323 0.0188087 0.0187761 0.01873 0.0186665 0.018582 0.0184732 0.0183371 0.0181706 0.0179707 0.0177341 0.0174579 0.0171399 0.0167794 0.0163782 0.0159432 0.0154915 0.0150569 0.0147026 0.0145156 0.0145493 0.0142405 0.0136896 0.0130291 0.012062 0.0110387 0.0125022 0 0 0 0 0 0 0 0 0 0 0 0 0 0 0 0 0 0 0 0 0 0 0 0 0 0 0 0 0 0 0 0 0 
0.0204711 0.0205197 0.0205672 0.0206153 0.0206639 0.0207127 0.0207613 0.0208095 0.0208571 0.020904 0.02095 0.0209952 0.0210395 0.0210829 0.0211252 0.0211666 0.0212068 0.0212461 0.0212842 0.0213212 0.0213571 0.0213918 0.0214254 0.0214578 0.0214891 0.0215191 0.0215479 0.0215754 0.0216017 0.0216267 0.0216504 0.0216729 0.021694 0.0217138 0.0217322 0.0217493 0.0217651 0.0217794 0.0217924 0.021804 0.0218142 0.021823 0.0218304 0.0218364 0.0218409 0.0218441 0.0218459 0.0218463 0.0218454 0.021843 0.0218393 0.0218342 0.0218277 0.02182 0.0218109 0.0218005 0.0217889 0.021776 0.0217619 0.0217465 0.02173 0.0217123 0.0216935 0.0216736 0.0216527 0.0216307 0.0216077 0.0215838 0.0215589 0.0215332 0.0215067 0.0214793 0.0214512 0.0214224 0.021393 0.0213629 0.0213323 0.0213012 0.0212696 0.0212376 0.0212052 0.0211726 0.0211397 0.0211066 0.0210733 0.0210399 0.0210066 0.0209732 0.0209399 0.0209067 0.0208736 0.0208408 0.0208083 0.0207761 0.0207443 0.0207128 0.0206818 0.0206514 0.0206214 0.0205921 0.0205633 0.0205353 0.0205078 0.0204811 0.0204552 0.02043 0.0204056 0.0203819 0.0203591 0.0203372 0.020316 0.0202957 0.0202762 0.0202576 0.0202398 0.0202229 0.0202068 0.0201915 0.020177 0.0201633 0.0201504 0.0201383 0.0201269 0.0201162 0.0201061 0.0200968 0.0200881 0.02008 0.0200725 0.0200656 0.0200592 0.0200533 0.0200479 0.0200429 0.0200384 0.0200343 0.0200305 0.0200271 0.020024 0.0200212 0.0200187 0.0200165 0.0200144 0.0200126 0.020011 0.0200096 0.0200083 0.0200072 0.0200062 0.0200054 0.0200046 0.0200039 0.0200034 0.0200029 0.0200024 0.0200021 0.0200017 0.0200015 0.0200012 0.020001 0.0200009 0.0200007 0.0200006 0.0200005 0.0200004 0.0200003 0.0200003 0.0200002 0.0200002 0.0200001 0.0200001 0.0200001 0.0200001 0.0200001 0.02 0.02 0.02 0.02 0.02 0.02 0.02 0.02 0.02 0.02 0.02 0.02 0.02 0.02 0.02 0.02 0.02 0.02 0.02 0.02 0.02 0.02 0.02 0.02 0.02 0.02 0.02 0.02 0.02 0.02 0.02 0.02 0.02 0.02 0.02 0.02 0.02 0.02 0.02 0.0199999 0.0199999 0.0199999 0.0199999 0.0199999 0.0199999 0.0199999 0.0199999 0.0199999 0.0199999 0.0199999 0.0199999 0.0199999 0.0199999 0.0199998 0.0199998 0.0199998 0.0199998 0.0199998 0.0199998 0.0199997 0.0199997 0.0199997 0.0199997 0.0199997 0.0199996 0.0199996 0.0199996 0.0199995 0.0199995 0.0199995 0.0199994 0.0199994 0.0199993 0.0199993 0.0199993 0.0199992 0.0199992 0.0199991 0.019999 0.019999 0.0199989 0.0199989 0.0199988 0.0199987 0.0199986 0.0199986 0.0199985 0.0199984 0.0199983 0.0199982 0.0199981 0.0199981 0.019998 0.0199979 0.0199978 0.0199977 0.0199976 0.0199975 0.0199974 0.0199973 0.0199972 0.0199971 0.019997 0.0199969 0.0199968 0.0199967 0.0199966 0.0199965 0.0199964 0.0199964 0.0199963 0.0199963 0.0199962 0.0199962 0.0199962 0.0199962 0.0199962 0.0199962 0.0199962 0.0199963 0.0199964 0.0199965 0.0199966 0.0199968 0.019997 0.0199972 0.0199975 0.0199978 0.0199981 0.0199984 0.0199989 0.0199993 0.0199998 0.0200003 0.0200009 0.0200016 0.0200023 0.0200031 0.0200039 0.0200048 0.0200057 0.0200067 0.0200078 0.020009 0.0200103 0.0200116 0.020013 0.0200145 0.020016 0.0200177 0.0200194 0.0200213 0.0200232 0.0200252 0.0200273 0.0200296 0.0200319 0.0200343 0.0200368 0.0200395 0.0200422 0.020045 0.020048 0.020051 0.0200542 0.0200574 0.0200608 0.0200642 0.0200678 0.0200715 0.0200753 0.0200792 0.0200832 0.0200872 0.0200914 0.0200957 0.0201001 0.0201045 0.0201091 0.0201137 0.0201185 0.0201233 0.0201281 0.0201331 0.0201381 0.0201432 0.0201483 0.0201535 0.0201588 0.0201641 0.0201694 0.0201748 0.0201802 0.0201856 0.0201911 0.0201965 0.020202 0.0202075 0.020213 0.0202185 0.020224 0.0202295 0.0202349 0.0202404 0.0202458 0.0202511 0.0202565 0.0202618 0.0202671 0.0202723 0.0202774 0.0202826 0.0202876 0.0202926 0.0202976 0.0203024 0.0203073 0.020312 0.0203167 0.0203213 0.0203258 0.0203303 0.0203347 0.0203391 0.0203433 0.0203475 0.0203517 0.0203557 0.0203597 0.0203637 0.0203676 0.0203714 0.0203751 0.0203789 0.0203825 0.0203861 0.0203897 0.0203932 0.0203967 0.0204002 0.0204036 0.020407 0.0204104 0.0204138 0.0204171 0.0204204 0.0204237 0.020427 0.0204303 0.0204336 0.0204369 0.0204402 0.0204435 0.0204468 0.0204501 0.0204534 0.0204567 0.02046 0.0204633 0.0204666 0.0204699 0.0204733 0.0204766 0.0204799 0.0204832 0.0204865 0.0204897 0.020493 0.0204962 0.0204994 0.0205025 0.0205056 0.0205086 0.0205116 0.0205145 0.0205173 0.02052 0.0205227 0.0205252 0.0205275 0.0205298 0.0205319 0.0205338 0.0205356 0.0205371 0.0205385 0.0205397 0.0205406 0.0205413 0.0205417 0.0205419 0.0205417 0.0205413 0.0205406 0.0205395 0.0205381 0.0205364 0.0205342 0.0205317 0.0205288 0.0205254 0.0205216 0.0205174 0.0205127 0.0205074 0.0205017 0.0204954 0.0204886 0.0204812 0.0204731 0.0204645 0.0204552 0.0204453 0.0204347 0.0204234 0.0204115 0.0203988 0.0203854 0.0203713 0.0203565 0.0203409 0.0203247 0.0203077 0.0202899 0.0202715 0.0202523 0.0202324 0.0202118 0.0201904 0.0201684 0.0201456 0.0201222 0.020098 0.0200732 0.0200478 0.0200216 0.0199949 0.0199675 0.0199395 0.0199109 0.0198818 0.0198521 0.0198218 0.019791 0.0197597 0.019728 0.0196959 0.0196633 0.0196304 0.0195972 0.0195637 0.01953 0.0194961 0.019462 0.0194279 0.0193938 0.0193597 0.0193257 0.0192918 0.0192582 0.0192249 0.0191921 0.0191598 0.0191281 0.0190972 0.0190673 0.0190385 0.019011 0.0189851 0.018961 0.0189389 0.018919 0.0189015 0.0188866 0.0188745 0.0188653 0.0188592 0.0188561 0.018856 0.0188585 0.0188633 0.0188692 0.0188749 0.0188786 0.0188785 0.0188735 0.0188633 0.0188481 0.0188261 0.0187942 0.0187485 0.0186855 0.0186014 0.0184932 0.0183577 0.0181918 0.0179925 0.0177567 0.0174816 0.0171651 0.0168066 0.0164087 0.0159794 0.0155394 0.0151315 0.0148238 0.0146479 0.0145332 0.0142254 0.0137369 0.0130273 0.0118875 0.0110766 0.0102052 0.012085 0 0 0 0 0 0 0 0 0 0 0 0 0 0 0 0 0 0 0 0 0 0 0 0 0 0 0 0 0 0 0 -2.60209e-18 
0.0204711 0.0205204 0.0205689 0.0206173 0.0206659 0.0207145 0.020763 0.020811 0.0208585 0.0209053 0.0209514 0.0209965 0.0210408 0.0210841 0.0211265 0.0211678 0.0212081 0.0212473 0.0212854 0.0213224 0.0213583 0.021393 0.0214266 0.021459 0.0214902 0.0215201 0.0215489 0.0215764 0.0216027 0.0216277 0.0216514 0.0216738 0.0216949 0.0217147 0.0217331 0.0217501 0.0217658 0.0217802 0.0217931 0.0218047 0.0218148 0.0218236 0.021831 0.0218369 0.0218415 0.0218446 0.0218464 0.0218468 0.0218458 0.0218434 0.0218396 0.0218345 0.021828 0.0218202 0.0218111 0.0218007 0.021789 0.0217761 0.021762 0.0217466 0.02173 0.0217123 0.0216935 0.0216736 0.0216526 0.0216306 0.0216076 0.0215836 0.0215587 0.021533 0.0215064 0.021479 0.0214509 0.0214221 0.0213926 0.0213625 0.0213319 0.0213007 0.0212691 0.0212371 0.0212047 0.021172 0.0211391 0.0211059 0.0210726 0.0210393 0.0210059 0.0209725 0.0209391 0.0209059 0.0208729 0.02084 0.0208075 0.0207753 0.0207434 0.020712 0.020681 0.0206505 0.0206206 0.0205912 0.0205625 0.0205344 0.020507 0.0204803 0.0204543 0.0204291 0.0204047 0.0203811 0.0203583 0.0203364 0.0203152 0.0202949 0.0202755 0.0202569 0.0202391 0.0202222 0.0202061 0.0201909 0.0201764 0.0201628 0.0201499 0.0201377 0.0201264 0.0201157 0.0201057 0.0200964 0.0200877 0.0200796 0.0200722 0.0200652 0.0200589 0.020053 0.0200476 0.0200427 0.0200382 0.020034 0.0200303 0.0200269 0.0200238 0.0200211 0.0200186 0.0200163 0.0200143 0.0200125 0.0200109 0.0200095 0.0200083 0.0200072 0.0200062 0.0200053 0.0200046 0.0200039 0.0200033 0.0200028 0.0200024 0.020002 0.0200017 0.0200014 0.0200012 0.020001 0.0200008 0.0200007 0.0200006 0.0200005 0.0200004 0.0200003 0.0200003 0.0200002 0.0200002 0.0200001 0.0200001 0.0200001 0.0200001 0.0200001 0.02 0.02 0.02 0.02 0.02 0.02 0.02 0.02 0.02 0.02 0.02 0.02 0.02 0.02 0.02 0.02 0.02 0.02 0.02 0.02 0.02 0.02 0.02 0.02 0.02 0.02 0.02 0.02 0.02 0.02 0.02 0.02 0.02 0.02 0.02 0.02 0.02 0.02 0.02 0.0199999 0.0199999 0.0199999 0.0199999 0.0199999 0.0199999 0.0199999 0.0199999 0.0199999 0.0199999 0.0199999 0.0199999 0.0199999 0.0199999 0.0199998 0.0199998 0.0199998 0.0199998 0.0199998 0.0199998 0.0199997 0.0199997 0.0199997 0.0199997 0.0199997 0.0199996 0.0199996 0.0199996 0.0199995 0.0199995 0.0199995 0.0199994 0.0199994 0.0199994 0.0199993 0.0199993 0.0199992 0.0199992 0.0199991 0.0199991 0.019999 0.0199989 0.0199989 0.0199988 0.0199987 0.0199987 0.0199986 0.0199985 0.0199984 0.0199983 0.0199983 0.0199982 0.0199981 0.019998 0.0199979 0.0199978 0.0199977 0.0199976 0.0199975 0.0199974 0.0199973 0.0199972 0.0199971 0.019997 0.0199969 0.0199968 0.0199967 0.0199966 0.0199966 0.0199965 0.0199964 0.0199964 0.0199963 0.0199963 0.0199962 0.0199962 0.0199962 0.0199962 0.0199962 0.0199963 0.0199963 0.0199964 0.0199965 0.0199967 0.0199968 0.019997 0.0199972 0.0199975 0.0199978 0.0199981 0.0199985 0.0199989 0.0199993 0.0199998 0.0200003 0.0200009 0.0200016 0.0200023 0.020003 0.0200038 0.0200047 0.0200056 0.0200067 0.0200077 0.0200089 0.0200101 0.0200114 0.0200128 0.0200143 0.0200158 0.0200175 0.0200192 0.020021 0.0200229 0.0200249 0.020027 0.0200292 0.0200315 0.0200339 0.0200364 0.020039 0.0200417 0.0200445 0.0200474 0.0200505 0.0200536 0.0200568 0.0200601 0.0200636 0.0200671 0.0200708 0.0200745 0.0200784 0.0200823 0.0200864 0.0200905 0.0200948 0.0200991 0.0201036 0.0201081 0.0201127 0.0201174 0.0201222 0.020127 0.0201319 0.0201369 0.020142 0.0201471 0.0201522 0.0201575 0.0201627 0.0201681 0.0201734 0.0201788 0.0201842 0.0201897 0.0201951 0.0202006 0.0202061 0.0202116 0.0202171 0.0202226 0.020228 0.0202335 0.0202389 0.0202443 0.0202497 0.0202551 0.0202604 0.0202657 0.0202709 0.0202761 0.0202813 0.0202864 0.0202914 0.0202964 0.0203013 0.0203061 0.0203109 0.0203157 0.0203203 0.0203249 0.0203294 0.0203339 0.0203383 0.0203426 0.0203468 0.020351 0.0203552 0.0203592 0.0203632 0.0203671 0.020371 0.0203748 0.0203786 0.0203823 0.020386 0.0203896 0.0203932 0.0203968 0.0204003 0.0204037 0.0204072 0.0204106 0.020414 0.0204174 0.0204207 0.020424 0.0204274 0.0204307 0.020434 0.0204373 0.0204406 0.0204438 0.0204471 0.0204504 0.0204537 0.020457 0.0204602 0.0204635 0.0204668 0.0204701 0.0204733 0.0204766 0.0204798 0.0204831 0.0204863 0.0204895 0.0204926 0.0204958 0.0204988 0.0205019 0.0205049 0.0205078 0.0205107 0.0205135 0.0205162 0.0205188 0.0205213 0.0205237 0.020526 0.0205281 0.0205301 0.0205319 0.0205335 0.020535 0.0205363 0.0205373 0.0205382 0.0205388 0.0205391 0.0205392 0.020539 0.0205386 0.0205378 0.0205367 0.0205353 0.0205336 0.0205315 0.020529 0.0205262 0.0205229 0.0205192 0.0205151 0.0205105 0.0205054 0.0204998 0.0204937 0.020487 0.0204798 0.020472 0.0204635 0.0204545 0.0204448 0.0204344 0.0204233 0.0204116 0.0203991 0.020386 0.0203721 0.0203575 0.0203422 0.0203262 0.0203095 0.020292 0.0202739 0.020255 0.0202354 0.0202151 0.0201942 0.0201725 0.0201501 0.020127 0.0201033 0.0200789 0.0200539 0.0200282 0.0200019 0.019975 0.0199475 0.0199194 0.0198907 0.0198614 0.0198316 0.0198013 0.0197705 0.0197393 0.0197075 0.0196754 0.019643 0.0196102 0.0195771 0.0195438 0.0195103 0.0194766 0.0194428 0.019409 0.0193753 0.0193416 0.0193081 0.0192747 0.0192417 0.0192091 0.0191771 0.0191457 0.019115 0.0190854 0.0190569 0.0190297 0.0190042 0.0189804 0.0189586 0.0189391 0.018922 0.0189075 0.0188959 0.0188872 0.0188815 0.0188788 0.0188788 0.0188813 0.0188855 0.0188904 0.0188947 0.0188971 0.0188968 0.0188928 0.018885 0.0188719 0.0188514 0.0188204 0.0187754 0.018713 0.0186297 0.0185222 0.0183876 0.0182226 0.0180245 0.0177901 0.0175166 0.0172022 0.0168472 0.016455 0.0160359 0.0156129 0.0152322 0.0149453 0.0147624 0.0145963 0.0143034 0.0138613 0.0131841 0.0120088 0.0109135 0.00920655 0.00973642 0 0 0 0 0 0 0 0 0 0 0 0 0 0 0 0 0 0 0 0 0 0 0 0 0 0 0 0 0 0 0 0 
0.0204711 0.0205211 0.0205701 0.0206189 0.0206675 0.0207161 0.0207644 0.0208124 0.0208598 0.0209065 0.0209525 0.0209976 0.0210419 0.0210852 0.0211275 0.0211688 0.0212091 0.0212483 0.0212864 0.0213234 0.0213593 0.021394 0.0214275 0.0214599 0.0214911 0.0215211 0.0215498 0.0215774 0.0216036 0.0216286 0.0216523 0.0216747 0.0216957 0.0217155 0.0217339 0.0217509 0.0217666 0.0217809 0.0217938 0.0218053 0.0218155 0.0218242 0.0218315 0.0218375 0.021842 0.0218451 0.0218469 0.0218472 0.0218462 0.0218437 0.02184 0.0218348 0.0218283 0.0218205 0.0218114 0.0218009 0.0217892 0.0217763 0.0217621 0.0217467 0.0217301 0.0217124 0.0216936 0.0216736 0.0216526 0.0216306 0.0216075 0.0215836 0.0215587 0.0215329 0.0215063 0.0214789 0.0214508 0.0214219 0.0213924 0.0213623 0.0213316 0.0213004 0.0212688 0.0212367 0.0212043 0.0211716 0.0211387 0.0211055 0.0210722 0.0210388 0.0210053 0.0209719 0.0209386 0.0209053 0.0208723 0.0208394 0.0208069 0.0207746 0.0207427 0.0207113 0.0206803 0.0206498 0.0206198 0.0205905 0.0205617 0.0205336 0.0205062 0.0204795 0.0204536 0.0204284 0.020404 0.0203804 0.0203576 0.0203357 0.0203145 0.0202943 0.0202748 0.0202563 0.0202385 0.0202216 0.0202056 0.0201903 0.0201759 0.0201623 0.0201494 0.0201373 0.0201259 0.0201153 0.0201053 0.020096 0.0200873 0.0200793 0.0200718 0.020065 0.0200586 0.0200527 0.0200474 0.0200425 0.020038 0.0200339 0.0200301 0.0200268 0.0200237 0.0200209 0.0200185 0.0200162 0.0200142 0.0200124 0.0200109 0.0200095 0.0200082 0.0200071 0.0200061 0.0200053 0.0200045 0.0200039 0.0200033 0.0200028 0.0200024 0.020002 0.0200017 0.0200014 0.0200012 0.020001 0.0200008 0.0200007 0.0200006 0.0200005 0.0200004 0.0200003 0.0200003 0.0200002 0.0200002 0.0200001 0.0200001 0.0200001 0.0200001 0.0200001 0.02 0.02 0.02 0.02 0.02 0.02 0.02 0.02 0.02 0.02 0.02 0.02 0.02 0.02 0.02 0.02 0.02 0.02 0.02 0.02 0.02 0.02 0.02 0.02 0.02 0.02 0.02 0.02 0.02 0.02 0.02 0.02 0.02 0.02 0.02 0.02 0.02 0.02 0.02 0.02 0.0199999 0.0199999 0.0199999 0.0199999 0.0199999 0.0199999 0.0199999 0.0199999 0.0199999 0.0199999 0.0199999 0.0199999 0.0199999 0.0199998 0.0199998 0.0199998 0.0199998 0.0199998 0.0199998 0.0199998 0.0199997 0.0199997 0.0199997 0.0199997 0.0199996 0.0199996 0.0199996 0.0199996 0.0199995 0.0199995 0.0199995 0.0199994 0.0199994 0.0199993 0.0199993 0.0199992 0.0199992 0.0199991 0.0199991 0.019999 0.019999 0.0199989 0.0199988 0.0199988 0.0199987 0.0199986 0.0199985 0.0199985 0.0199984 0.0199983 0.0199982 0.0199981 0.019998 0.0199979 0.0199978 0.0199977 0.0199976 0.0199975 0.0199974 0.0199973 0.0199972 0.0199971 0.0199971 0.019997 0.0199969 0.0199968 0.0199967 0.0199966 0.0199965 0.0199965 0.0199964 0.0199964 0.0199963 0.0199963 0.0199963 0.0199963 0.0199963 0.0199963 0.0199963 0.0199964 0.0199965 0.0199966 0.0199967 0.0199969 0.0199971 0.0199973 0.0199975 0.0199978 0.0199981 0.0199985 0.0199989 0.0199993 0.0199998 0.0200003 0.0200009 0.0200015 0.0200022 0.020003 0.0200038 0.0200046 0.0200056 0.0200066 0.0200076 0.0200088 0.02001 0.0200113 0.0200126 0.0200141 0.0200156 0.0200172 0.0200189 0.0200207 0.0200226 0.0200246 0.0200267 0.0200288 0.0200311 0.0200335 0.0200359 0.0200385 0.0200412 0.0200439 0.0200468 0.0200498 0.0200529 0.0200561 0.0200594 0.0200628 0.0200663 0.0200699 0.0200736 0.0200774 0.0200813 0.0200853 0.0200894 0.0200937 0.020098 0.0201023 0.0201068 0.0201114 0.020116 0.0201208 0.0201256 0.0201305 0.0201354 0.0201404 0.0201455 0.0201507 0.0201559 0.0201611 0.0201664 0.0201717 0.0201771 0.0201825 0.0201879 0.0201933 0.0201988 0.0202043 0.0202098 0.0202152 0.0202207 0.0202262 0.0202317 0.0202371 0.0202425 0.0202479 0.0202533 0.0202586 0.020264 0.0202692 0.0202744 0.0202796 0.0202847 0.0202898 0.0202948 0.0202998 0.0203047 0.0203095 0.0203143 0.020319 0.0203236 0.0203282 0.0203327 0.0203372 0.0203416 0.0203459 0.0203501 0.0203543 0.0203584 0.0203625 0.0203665 0.0203704 0.0203743 0.0203782 0.0203819 0.0203857 0.0203894 0.020393 0.0203966 0.0204001 0.0204037 0.0204072 0.0204106 0.020414 0.0204174 0.0204208 0.0204242 0.0204275 0.0204308 0.0204341 0.0204374 0.0204407 0.020444 0.0204473 0.0204505 0.0204538 0.020457 0.0204603 0.0204635 0.0204667 0.0204699 0.0204731 0.0204763 0.0204795 0.0204826 0.0204857 0.0204888 0.0204919 0.0204949 0.0204979 0.0205008 0.0205036 0.0205065 0.0205092 0.0205118 0.0205144 0.0205169 0.0205192 0.0205215 0.0205236 0.0205256 0.0205274 0.0205291 0.0205306 0.020532 0.0205331 0.0205341 0.0205348 0.0205353 0.0205356 0.0205356 0.0205354 0.0205349 0.0205341 0.0205331 0.0205317 0.02053 0.020528 0.0205256 0.0205228 0.0205196 0.0205161 0.0205121 0.0205076 0.0205027 0.0204973 0.0204914 0.0204849 0.020478 0.0204704 0.0204622 0.0204534 0.020444 0.0204339 0.0204232 0.0204117 0.0203996 0.0203867 0.0203732 0.0203589 0.020344 0.0203283 0.0203119 0.0202949 0.0202771 0.0202586 0.0202395 0.0202196 0.0201991 0.0201779 0.020156 0.0201335 0.0201103 0.0200864 0.0200619 0.0200368 0.0200111 0.0199848 0.0199578 0.0199303 0.0199022 0.0198735 0.0198444 0.0198146 0.0197844 0.0197538 0.0197226 0.0196911 0.0196592 0.0196269 0.0195944 0.0195616 0.0195286 0.0194954 0.0194621 0.0194288 0.0193954 0.0193622 0.019329 0.0192961 0.0192635 0.0192313 0.0191996 0.0191686 0.0191384 0.0191091 0.0190811 0.0190543 0.0190292 0.0190059 0.0189846 0.0189656 0.0189491 0.0189352 0.0189241 0.0189159 0.0189107 0.0189082 0.0189083 0.0189105 0.0189141 0.0189181 0.0189215 0.0189236 0.0189238 0.0189213 0.0189151 0.0189035 0.0188841 0.018854 0.0188098 0.0187481 0.0186657 0.0185591 0.0184255 0.0182618 0.018065 0.0178321 0.0175607 0.0172494 0.0168993 0.0165155 0.0161101 0.0157078 0.0153475 0.015067 0.0148618 0.0146678 0.0143835 0.0139701 0.0133269 0.0122917 0.0107872 0.00942851 0.00937016 0.0131099 0 0 0 0 0 0 0 0 0 0 0 0 0 0 0 0 0 0 0 0 0 0 0 0 0 0 0 0 0 0 -4.33681e-18 