# vtk DataFile Version 2.0
iteration 2241
ASCII

DATASET STRUCTURED_POINTS
DIMENSIONS 621 64 1
ORIGIN 0 0 0
SPACING 0.00161031 0.00161031 0.00161031

POINT_DATA 39744
SCALARS P float 1
LOOKUP_TABLE default
0 0 0 0 0 0 0 0 0 0 0 0 0 0 0 0 0 0 0 0 0 0 0 0 0 0 0 0 0 0 0 0 0 0 0 0 0 0 0 0 0 0 0 0 0 0 0 0 0 0 0 0 0 0 0 0 0 0 0 0 0 0 0 0 0 0 0 0 0 0 0 0 0 0 0 0 0 0 0 0 0 0 0 0 0 0 0 0 0 0 0 0 0 0 0 0 0 0 0 0 0 0 0 0 0 0 0 0 0 0 0 0 0 0 0 0 0 0 0 0 0 0 0 0 0 0 0 0 0 0 0 0 0 0 0 0 0 0 0 0 0 0 0 0 0 0 0 0 0 0 0 0 0 0 0 0 0 0 0 0 0 0 0 0 0 0 0 0 0 0 0 0 0 0 0 0 0 0 0 0 0 0 0 0 0 0 0 0 0 0 0 0 0 0 0 0 0 0 0 0 0 0 0 0 0 0 0 0 0 0 0 0 0 0 0 0 0 0 0 0 0 0 0 0 0 0 0 0 0 0 0 0 0 0 0 0 0 0 0 0 0 0 0 0 0 0 0 0 0 0 0 0 0 0 0 0 0 0 0 0 0 0 0 0 0 0 0 0 0 0 0 0 0 0 0 0 0 0 0 0 0 0 0 0 0 0 0 0 0 0 0 0 0 0 0 0 0 0 0 0 0 0 0 0 0 0 0 0 0 0 0 0 0 0 0 0 0 0 0 0 0 0 0 0 0 0 0 0 0 0 0 0 0 0 0 0 0 0 0 0 0 0 0 0 0 0 0 0 0 0 0 0 0 0 0 0 0 0 0 0 0 0 0 0 0 0 0 0 0 0 0 0 0 0 0 0 0 0 0 0 0 0 0 0 0 0 0 0 0 0 0 0 0 0 0 0 0 0 0 0 0 0 0 0 0 0 0 0 0 0 0 0 0 0 0 0 0 0 0 0 0 0 0 0 0 0 0 0 0 0 0 0 0 0 0 0 0 0 0 0 0 0 0 0 0 0 0 0 0 0 0 0 0 0 0 0 0 0 0 0 0 0 0 0 0 0 0 0 0 0 0 0 0 0 0 0 0 0 0 0 0 0 0 0 0 0 0 0 0 0 0 0 0 0 0 0 0 0 0 0 0 0 0 0 0 0 0 0 0 0 0 0 0 0 0 0 0 0 0 0 0 0 0 0 0 0 0 0 0 0 0 0 0 0 0 0 0 0 0 0 0 0 0 0 0 0 0 0 0 0 0 0 0 0 0 0 0 0 0 0 0 0 0 0 0 0 0 0 0 0 0 0 0 0 0 0 0 0 0 0 0 0 0 0 0 0 0 0 0 0 0 0 0 0 0 0 0 0 0 0 0 0 0 0 0 0 0 0 0 0 0 0 0 0 0 0 0 0 0 0 0 
0.0216738 0.021673 0.0216275 0.0215881 0.0215502 0.0215123 0.0214737 0.0214344 0.0213943 0.0213535 0.021312 0.0212699 0.0212272 0.021184 0.0211405 0.0210966 0.0210525 0.0210083 0.020964 0.0209197 0.0208757 0.0208318 0.0207884 0.0207453 0.0207029 0.0206611 0.02062 0.0205798 0.0205405 0.0205023 0.0204653 0.0204294 0.0203949 0.0203618 0.0203301 0.0202999 0.0202713 0.0202443 0.020219 0.0201953 0.0201732 0.0201529 0.0201341 0.020117 0.0201015 0.0200874 0.0200749 0.0200637 0.0200537 0.020045 0.0200375 0.0200309 0.0200253 0.0200205 0.0200165 0.0200132 0.0200104 0.0200081 0.0200063 0.0200048 0.0200036 0.0200027 0.020002 0.0200015 0.0200011 0.0200007 0.0200005 0.0200004 0.0200002 0.0200002 0.0200001 0.0200001 0.02 0.02 0.02 0.02 0.02 0.02 0.02 0.02 0.02 0.02 0.02 0.02 0.02 0.02 0.02 0.02 0.02 0.02 0.02 0.02 0.02 0.02 0.02 0.02 0.02 0.02 0.02 0.02 0.02 0.02 0.02 0.02 0.02 0.02 0.02 0.02 0.02 0.02 0.02 0.02 0.02 0.02 0.02 0.02 0.02 0.02 0.02 0.02 0.02 0.02 0.02 0.02 0.02 0.02 0.02 0.02 0.02 0.02 0.02 0.02 0.02 0.02 0.02 0.02 0.02 0.02 0.02 0.02 0.02 0.02 0.02 0.02 0.02 0.02 0.02 0.02 0.02 0.02 0.02 0.02 0.02 0.02 0.02 0.02 0.02 0.02 0.02 0.02 0.02 0.02 0.02 0.02 0.02 0.02 0.02 0.02 0.02 0.02 0.02 0.02 0.02 0.02 0.02 0.02 0.02 0.02 0.02 0.02 0.02 0.02 0.02 0.02 0.02 0.02 0.02 0.02 0.02 0.02 0.02 0.02 0.02 0.02 0.02 0.0199999 0.0199999 0.0199999 0.0199999 0.0199999 0.0199999 0.0199999 0.0199999 0.0199999 0.0199999 0.0199999 0.0199999 0.0199999 0.0199998 0.0199998 0.0199998 0.0199998 0.0199998 0.0199998 0.0199998 0.0199997 0.0199997 0.0199997 0.0199997 0.0199997 0.0199997 0.0199996 0.0199996 0.0199996 0.0199996 0.0199995 0.0199995 0.0199995 0.0199995 0.0199995 0.0199994 0.0199994 0.0199994 0.0199994 0.0199994 0.0199993 0.0199993 0.0199993 0.0199993 0.0199993 0.0199993 0.0199993 0.0199993 0.0199993 0.0199994 0.0199994 0.0199994 0.0199995 0.0199996 0.0199996 0.0199997 0.0199998 0.0199999 0.0200001 0.0200002 0.0200004 0.0200006 0.0200008 0.0200011 0.0200013 0.0200016 0.020002 0.0200023 0.0200027 0.0200032 0.0200037 0.0200042 0.0200047 0.0200053 0.020006 0.0200067 0.0200075 0.0200083 0.0200092 0.0200101 0.0200112 0.0200122 0.0200134 0.0200146 0.0200159 0.0200173 0.0200188 0.0200203 0.020022 0.0200237 0.0200255 0.0200275 0.0200295 0.0200316 0.0200338 0.0200362 0.0200386 0.0200412 0.0200439 0.0200466 0.0200495 0.0200526 0.0200557 0.0200589 0.0200623 0.0200657 0.0200693 0.020073 0.0200768 0.0200808 0.0200849 0.0200891 0.0200935 0.020098 0.0201026 0.0201073 0.0201121 0.0201171 0.0201221 0.0201273 0.0201326 0.020138 0.0201435 0.0201492 0.0201549 0.0201607 0.0201666 0.0201726 0.0201787 0.0201849 0.0201911 0.0201974 0.0202038 0.0202102 0.0202167 0.0202232 0.0202298 0.0202364 0.020243 0.0202497 0.0202564 0.020263 0.0202697 0.0202764 0.020283 0.0202896 0.0202962 0.0203028 0.0203093 0.0203157 0.0203221 0.0203284 0.0203347 0.0203408 0.0203469 0.0203528 0.0203587 0.0203644 0.02037 0.0203755 0.0203808 0.020386 0.020391 0.0203959 0.0204006 0.0204051 0.0204095 0.0204137 0.0204176 0.0204214 0.020425 0.0204284 0.0204316 0.0204346 0.0204374 0.02044 0.0204423 0.0204445 0.0204464 0.020448 0.0204495 0.0204508 0.0204518 0.0204526 0.0204533 0.0204539 0.020454 0.0204543 0.0204543 0.0204542 0.020454 0.0204536 0.020453 0.0204524 0.0204515 0.0204506 0.0204495 0.0204484 0.0204471 0.0204458 0.0204443 0.0204428 0.0204413 0.0204397 0.020438 0.0204364 0.0204347 0.020433 0.0204313 0.0204296 0.0204279 0.0204263 0.0204247 0.0204232 0.0204217 0.0204202 0.0204188 0.0204175 0.0204163 0.0204152 0.0204141 0.0204132 0.0204123 0.0204115 0.0204109 0.0204103 0.0204098 0.0204094 0.0204091 0.0204089 0.0204088 0.0204087 0.0204087 0.0204088 0.0204089 0.0204091 0.0204093 0.0204095 0.0204098 0.02041 0.0204102 0.0204104 0.0204106 0.0204107 0.0204108 0.0204108 0.0204107 0.0204105 0.0204102 0.0204097 0.0204091 0.0204084 0.0204075 0.0204064 0.0204051 0.0204036 0.0204019 0.0204 0.0203978 0.0203954 0.0203927 0.0203897 0.0203865 0.020383 0.0203792 0.0203751 0.0203707 0.020366 0.0203609 0.0203556 0.0203499 0.0203439 0.0203376 0.0203309 0.020324 0.0203167 0.0203091 0.0203012 0.0202929 0.0202843 0.0202754 0.0202662 0.0202566 0.0202467 0.0202363 0.0202256 0.0202143 0.0202026 0.0201902 0.0201772 0.0201633 0.0201486 0.0201327 0.0201156 0.0200971 0.020077 0.0200551 0.0200311 0.0200049 0.0199763 0.019945 0.0199109 0.0198739 0.0198338 0.0197905 0.0197441 0.0196946 0.0196422 0.0195869 0.0195292 0.0194693 0.0194075 0.0193442 0.0192803 0.019216 0.0191515 0.0190867 0.0190213 0.0189565 0.018893 0.0188309 0.0187698 0.0187088 0.0186479 0.0185869 0.0185257 0.018464 0.018401 0.0183354 0.0182652 0.0181879 0.0180999 0.0179962 0.0178707 0.0177181 0.0175366 0.0173299 0.0171155 0.0170036 0.0169213 0.0189645 0 0 0 0 0 0 0 0 0 0 0 0 0 0 0 0 0 0 0 0 0 0 0 0 0 0 0 0 0 0 0 0 0 0 0 0 0 0 0 0 0 0 0 0 0 0 0 0 0 0 0 0 0 0 0 0 0 0 0 0 0 0 0 0 0 0 0 0 0 0 0 0 0 0 0 0 0 0 0 0 0 0 0 0 0 
0.0216738 0.0216551 0.0216202 0.0215837 0.0215464 0.0215086 0.0214699 0.0214305 0.0213904 0.0213494 0.0213078 0.0212656 0.0212228 0.0211795 0.0211358 0.0210919 0.0210477 0.0210034 0.020959 0.0209147 0.0208706 0.0208267 0.0207832 0.0207402 0.0206977 0.020656 0.020615 0.0205748 0.0205357 0.0204976 0.0204606 0.0204249 0.0203906 0.0203576 0.0203261 0.0202962 0.0202678 0.020241 0.0202159 0.0201924 0.0201706 0.0201505 0.020132 0.0201151 0.0200998 0.0200859 0.0200735 0.0200625 0.0200528 0.0200442 0.0200368 0.0200303 0.0200248 0.0200201 0.0200162 0.0200129 0.0200102 0.020008 0.0200062 0.0200047 0.0200036 0.0200027 0.020002 0.0200014 0.020001 0.0200007 0.0200005 0.0200004 0.0200002 0.0200002 0.0200001 0.0200001 0.02 0.02 0.02 0.02 0.02 0.02 0.02 0.02 0.02 0.02 0.02 0.02 0.02 0.02 0.02 0.02 0.02 0.02 0.02 0.02 0.02 0.02 0.02 0.02 0.02 0.02 0.02 0.02 0.02 0.02 0.02 0.02 0.02 0.02 0.02 0.02 0.02 0.02 0.02 0.02 0.02 0.02 0.02 0.02 0.02 0.02 0.02 0.02 0.02 0.02 0.02 0.02 0.02 0.02 0.02 0.02 0.02 0.02 0.02 0.02 0.02 0.02 0.02 0.02 0.02 0.02 0.02 0.02 0.02 0.02 0.02 0.02 0.02 0.02 0.02 0.02 0.02 0.02 0.02 0.02 0.02 0.02 0.02 0.02 0.02 0.02 0.02 0.02 0.02 0.02 0.02 0.02 0.02 0.02 0.02 0.02 0.02 0.02 0.02 0.02 0.02 0.02 0.02 0.02 0.02 0.02 0.02 0.02 0.02 0.02 0.02 0.02 0.02 0.02 0.02 0.02 0.02 0.02 0.02 0.02 0.02 0.02 0.02 0.0199999 0.0199999 0.0199999 0.0199999 0.0199999 0.0199999 0.0199999 0.0199999 0.0199999 0.0199999 0.0199999 0.0199999 0.0199999 0.0199998 0.0199998 0.0199998 0.0199998 0.0199998 0.0199998 0.0199998 0.0199997 0.0199997 0.0199997 0.0199997 0.0199997 0.0199997 0.0199996 0.0199996 0.0199996 0.0199996 0.0199995 0.0199995 0.0199995 0.0199995 0.0199995 0.0199994 0.0199994 0.0199994 0.0199994 0.0199994 0.0199993 0.0199993 0.0199993 0.0199993 0.0199993 0.0199993 0.0199993 0.0199993 0.0199993 0.0199994 0.0199994 0.0199994 0.0199995 0.0199996 0.0199996 0.0199997 0.0199998 0.0199999 0.0200001 0.0200002 0.0200004 0.0200006 0.0200008 0.020001 0.0200013 0.0200016 0.0200019 0.0200023 0.0200027 0.0200031 0.0200036 0.0200041 0.0200047 0.0200053 0.020006 0.0200067 0.0200074 0.0200083 0.0200091 0.0200101 0.0200111 0.0200122 0.0200133 0.0200145 0.0200158 0.0200172 0.0200187 0.0200202 0.0200218 0.0200236 0.0200254 0.0200273 0.0200293 0.0200314 0.0200336 0.020036 0.0200384 0.0200409 0.0200436 0.0200464 0.0200492 0.0200522 0.0200554 0.0200586 0.0200619 0.0200654 0.0200689 0.0200726 0.0200765 0.0200804 0.0200845 0.0200887 0.020093 0.0200975 0.020102 0.0201067 0.0201116 0.0201165 0.0201215 0.0201267 0.020132 0.0201374 0.0201429 0.0201485 0.0201542 0.0201599 0.0201658 0.0201718 0.0201779 0.020184 0.0201902 0.0201965 0.0202028 0.0202093 0.0202157 0.0202222 0.0202288 0.0202353 0.020242 0.0202486 0.0202552 0.0202619 0.0202685 0.0202752 0.0202818 0.0202884 0.020295 0.0203015 0.020308 0.0203144 0.0203208 0.020327 0.0203333 0.0203394 0.0203454 0.0203513 0.0203572 0.0203629 0.0203684 0.0203739 0.0203792 0.0203843 0.0203893 0.0203942 0.0203989 0.0204034 0.0204077 0.0204118 0.0204158 0.0204196 0.0204231 0.0204265 0.0204297 0.0204326 0.0204354 0.0204379 0.0204402 0.0204424 0.0204443 0.020446 0.0204475 0.0204489 0.02045 0.0204509 0.0204516 0.0204523 0.0204527 0.020453 0.0204532 0.0204531 0.0204529 0.0204526 0.0204521 0.0204514 0.0204507 0.0204498 0.0204488 0.0204477 0.0204465 0.0204452 0.0204438 0.0204424 0.0204409 0.0204394 0.0204378 0.0204362 0.0204346 0.020433 0.0204313 0.0204297 0.0204281 0.0204265 0.020425 0.0204235 0.0204221 0.0204207 0.0204194 0.0204181 0.020417 0.0204159 0.0204149 0.020414 0.0204131 0.0204124 0.0204118 0.0204112 0.0204108 0.0204104 0.0204101 0.02041 0.0204098 0.0204098 0.0204098 0.0204099 0.0204101 0.0204102 0.0204104 0.0204107 0.0204109 0.0204112 0.0204114 0.0204116 0.0204118 0.0204119 0.0204119 0.0204119 0.0204118 0.0204116 0.0204112 0.0204108 0.0204102 0.0204094 0.0204085 0.0204074 0.020406 0.0204045 0.0204028 0.0204008 0.0203986 0.0203961 0.0203934 0.0203904 0.0203871 0.0203835 0.0203796 0.0203754 0.0203709 0.020366 0.0203609 0.0203554 0.0203496 0.0203434 0.020337 0.0203302 0.020323 0.0203156 0.0203078 0.0202996 0.0202912 0.0202824 0.0202733 0.0202638 0.020254 0.0202438 0.0202332 0.0202223 0.0202108 0.0201989 0.0201863 0.0201731 0.0201591 0.0201442 0.0201283 0.0201111 0.0200926 0.0200725 0.0200507 0.0200269 0.0200009 0.0199725 0.0199415 0.0199078 0.0198711 0.0198315 0.0197888 0.019743 0.0196941 0.0196424 0.0195878 0.0195308 0.0194716 0.0194105 0.0193481 0.0192847 0.0192209 0.0191569 0.0190928 0.0190278 0.018963 0.0188988 0.0188357 0.0187732 0.018711 0.0186489 0.0185866 0.018524 0.0184608 0.018396 0.0183284 0.0182561 0.0181764 0.0180858 0.0179794 0.0178511 0.0176963 0.0175144 0.0173167 0.0171361 0.0170469 0.0163337 0.0167956 0.0163405 0.0156592 0.0150086 0.0140544 0.013118 0.0141626 0 0 0 0 0 0 0 0 0 0 0 0 0 0 0 0 0 0 0 0 0 0 0 0 0 0 0 0 0 0 0 0 0 0 0 0 0 0 0 0 0 0 0 0 0 0 0 0 0 0 0 0 0 0 0 0 0 0 0 0 0 0 0 0 0 0 0 0 0 0 0 0 0 0 0 0 0 0 0 
0.0216738 0.0216489 0.0216168 0.0215817 0.0215451 0.0215074 0.0214688 0.0214294 0.0213892 0.0213482 0.0213066 0.0212643 0.0212214 0.0211781 0.0211344 0.0210903 0.0210461 0.0210017 0.0209573 0.020913 0.0208688 0.0208249 0.0207813 0.0207382 0.0206957 0.0206539 0.0206128 0.0205727 0.0205335 0.0204954 0.0204585 0.0204228 0.0203884 0.0203555 0.0203241 0.0202942 0.0202659 0.0202392 0.0202141 0.0201908 0.0201691 0.0201491 0.0201307 0.0201139 0.0200987 0.020085 0.0200727 0.0200617 0.0200521 0.0200436 0.0200363 0.0200299 0.0200245 0.0200199 0.020016 0.0200127 0.02001 0.0200078 0.0200061 0.0200046 0.0200035 0.0200026 0.0200019 0.0200014 0.020001 0.0200007 0.0200005 0.0200003 0.0200002 0.0200002 0.0200001 0.0200001 0.02 0.02 0.02 0.02 0.02 0.02 0.02 0.02 0.02 0.02 0.02 0.02 0.02 0.02 0.02 0.02 0.02 0.02 0.02 0.02 0.02 0.02 0.02 0.02 0.02 0.02 0.02 0.02 0.02 0.02 0.02 0.02 0.02 0.02 0.02 0.02 0.02 0.02 0.02 0.02 0.02 0.02 0.02 0.02 0.02 0.02 0.02 0.02 0.02 0.02 0.02 0.02 0.02 0.02 0.02 0.02 0.02 0.02 0.02 0.02 0.02 0.02 0.02 0.02 0.02 0.02 0.02 0.02 0.02 0.02 0.02 0.02 0.02 0.02 0.02 0.02 0.02 0.02 0.02 0.02 0.02 0.02 0.02 0.02 0.02 0.02 0.02 0.02 0.02 0.02 0.02 0.02 0.02 0.02 0.02 0.02 0.02 0.02 0.02 0.02 0.02 0.02 0.02 0.02 0.02 0.02 0.02 0.02 0.02 0.02 0.02 0.02 0.02 0.02 0.02 0.02 0.02 0.02 0.02 0.02 0.02 0.02 0.02 0.0199999 0.0199999 0.0199999 0.0199999 0.0199999 0.0199999 0.0199999 0.0199999 0.0199999 0.0199999 0.0199999 0.0199999 0.0199999 0.0199998 0.0199998 0.0199998 0.0199998 0.0199998 0.0199998 0.0199998 0.0199997 0.0199997 0.0199997 0.0199997 0.0199997 0.0199997 0.0199996 0.0199996 0.0199996 0.0199996 0.0199995 0.0199995 0.0199995 0.0199995 0.0199995 0.0199994 0.0199994 0.0199994 0.0199994 0.0199994 0.0199993 0.0199993 0.0199993 0.0199993 0.0199993 0.0199993 0.0199993 0.0199993 0.0199993 0.0199994 0.0199994 0.0199994 0.0199995 0.0199995 0.0199996 0.0199997 0.0199998 0.0199999 0.0200001 0.0200002 0.0200004 0.0200006 0.0200008 0.020001 0.0200013 0.0200016 0.0200019 0.0200023 0.0200027 0.0200031 0.0200036 0.0200041 0.0200047 0.0200053 0.0200059 0.0200066 0.0200074 0.0200082 0.0200091 0.02001 0.020011 0.0200121 0.0200132 0.0200144 0.0200157 0.0200171 0.0200186 0.0200201 0.0200217 0.0200234 0.0200252 0.0200271 0.0200291 0.0200312 0.0200334 0.0200357 0.0200382 0.0200407 0.0200433 0.0200461 0.0200489 0.0200519 0.020055 0.0200582 0.0200616 0.020065 0.0200685 0.0200722 0.020076 0.0200799 0.020084 0.0200882 0.0200925 0.0200969 0.0201014 0.0201061 0.0201109 0.0201158 0.0201208 0.0201259 0.0201312 0.0201365 0.020142 0.0201475 0.0201532 0.0201589 0.0201648 0.0201707 0.0201767 0.0201828 0.020189 0.0201953 0.0202016 0.0202079 0.0202143 0.0202208 0.0202273 0.0202338 0.0202404 0.020247 0.0202535 0.0202601 0.0202667 0.0202733 0.0202799 0.0202864 0.0202929 0.0202994 0.0203058 0.0203122 0.0203185 0.0203247 0.0203309 0.020337 0.0203429 0.0203488 0.0203545 0.0203602 0.0203657 0.0203711 0.0203763 0.0203814 0.0203863 0.0203911 0.0203957 0.0204001 0.0204044 0.0204085 0.0204124 0.0204161 0.0204196 0.0204229 0.020426 0.0204289 0.0204316 0.0204342 0.0204365 0.0204386 0.0204406 0.0204423 0.0204438 0.0204452 0.0204464 0.0204475 0.0204483 0.020449 0.0204495 0.0204499 0.02045 0.02045 0.0204499 0.0204496 0.0204492 0.0204486 0.0204479 0.0204471 0.0204462 0.0204452 0.0204441 0.0204429 0.0204417 0.0204403 0.0204389 0.0204375 0.0204361 0.0204346 0.0204331 0.0204316 0.02043 0.0204285 0.0204271 0.0204256 0.0204242 0.0204228 0.0204215 0.0204202 0.020419 0.0204179 0.0204168 0.0204158 0.0204149 0.0204141 0.0204134 0.0204128 0.0204122 0.0204118 0.0204114 0.0204111 0.0204109 0.0204108 0.0204108 0.0204108 0.0204109 0.020411 0.0204112 0.0204114 0.0204116 0.0204119 0.0204122 0.0204124 0.0204127 0.0204129 0.0204131 0.0204132 0.0204132 0.0204132 0.0204131 0.0204128 0.0204125 0.020412 0.0204113 0.0204105 0.0204096 0.0204084 0.020407 0.0204055 0.0204037 0.0204016 0.0203993 0.0203968 0.020394 0.0203909 0.0203875 0.0203838 0.0203798 0.0203755 0.0203708 0.0203658 0.0203606 0.0203549 0.020349 0.0203426 0.020336 0.020329 0.0203217 0.020314 0.020306 0.0202977 0.020289 0.02028 0.0202706 0.0202609 0.0202509 0.0202405 0.0202297 0.0202185 0.0202069 0.0201947 0.020182 0.0201686 0.0201545 0.0201395 0.0201235 0.0201063 0.0200878 0.0200677 0.0200459 0.0200222 0.0199964 0.0199682 0.0199376 0.0199042 0.019868 0.0198289 0.0197867 0.0197415 0.0196934 0.0196423 0.0195886 0.0195324 0.019474 0.0194138 0.0193521 0.0192895 0.0192264 0.0191631 0.0190998 0.0190362 0.0189715 0.0189069 0.0188426 0.0187787 0.018715 0.0186514 0.0185876 0.0185233 0.0184582 0.0183913 0.0183213 0.0182461 0.0181633 0.0180694 0.0179594 0.0178277 0.01767 0.0174897 0.0173075 0.0171672 0.0170844 0.0169761 0.0166202 0.0161032 0.015543 0.0148266 0.0139179 0.0129804 0.0122472 0.0108479 0.00903967 0.00793844 0 0 0 0 0 0 0 0 0 0 0 0 0 0 0 0 0 0 0 0 0 0 0 0 0 0 0 0 0 0 0 0 0 0 0 0 0 0 0 0 0 0 0 0 0 0 0 0 0 0 0 0 0 0 0 0 0 0 0 0 0 0 0 0 0 0 0 0 0 0 0 0 0 0 0 0 
0.0216738 0.0216462 0.0216147 0.0215804 0.0215443 0.0215069 0.0214684 0.021429 0.0213888 0.0213478 0.0213061 0.0212638 0.0212209 0.0211775 0.0211338 0.0210897 0.0210454 0.021001 0.0209565 0.0209121 0.0208678 0.0208239 0.0207803 0.0207371 0.0206945 0.0206526 0.0206115 0.0205713 0.0205321 0.0204939 0.020457 0.0204213 0.0203869 0.020354 0.0203225 0.0202927 0.0202644 0.0202377 0.0202128 0.0201895 0.0201679 0.0201479 0.0201296 0.0201129 0.0200978 0.0200841 0.0200719 0.0200611 0.0200515 0.0200431 0.0200358 0.0200295 0.0200242 0.0200196 0.0200158 0.0200125 0.0200099 0.0200077 0.020006 0.0200046 0.0200035 0.0200026 0.0200019 0.0200014 0.020001 0.0200007 0.0200005 0.0200003 0.0200002 0.0200002 0.0200001 0.0200001 0.02 0.02 0.02 0.02 0.02 0.02 0.02 0.02 0.02 0.02 0.02 0.02 0.02 0.02 0.02 0.02 0.02 0.02 0.02 0.02 0.02 0.02 0.02 0.02 0.02 0.02 0.02 0.02 0.02 0.02 0.02 0.02 0.02 0.02 0.02 0.02 0.02 0.02 0.02 0.02 0.02 0.02 0.02 0.02 0.02 0.02 0.02 0.02 0.02 0.02 0.02 0.02 0.02 0.02 0.02 0.02 0.02 0.02 0.02 0.02 0.02 0.02 0.02 0.02 0.02 0.02 0.02 0.02 0.02 0.02 0.02 0.02 0.02 0.02 0.02 0.02 0.02 0.02 0.02 0.02 0.02 0.02 0.02 0.02 0.02 0.02 0.02 0.02 0.02 0.02 0.02 0.02 0.02 0.02 0.02 0.02 0.02 0.02 0.02 0.02 0.02 0.02 0.02 0.02 0.02 0.02 0.02 0.02 0.02 0.02 0.02 0.02 0.02 0.02 0.02 0.02 0.02 0.02 0.02 0.02 0.02 0.02 0.02 0.0199999 0.0199999 0.0199999 0.0199999 0.0199999 0.0199999 0.0199999 0.0199999 0.0199999 0.0199999 0.0199999 0.0199999 0.0199999 0.0199998 0.0199998 0.0199998 0.0199998 0.0199998 0.0199998 0.0199998 0.0199997 0.0199997 0.0199997 0.0199997 0.0199997 0.0199997 0.0199996 0.0199996 0.0199996 0.0199996 0.0199995 0.0199995 0.0199995 0.0199995 0.0199995 0.0199994 0.0199994 0.0199994 0.0199994 0.0199994 0.0199993 0.0199993 0.0199993 0.0199993 0.0199993 0.0199993 0.0199993 0.0199993 0.0199993 0.0199994 0.0199994 0.0199994 0.0199995 0.0199995 0.0199996 0.0199997 0.0199998 0.0199999 0.0200001 0.0200002 0.0200004 0.0200006 0.0200008 0.020001 0.0200013 0.0200016 0.0200019 0.0200023 0.0200027 0.0200031 0.0200036 0.0200041 0.0200046 0.0200052 0.0200059 0.0200066 0.0200073 0.0200081 0.020009 0.0200099 0.0200109 0.020012 0.0200131 0.0200143 0.0200156 0.020017 0.0200184 0.0200199 0.0200215 0.0200232 0.020025 0.0200269 0.0200289 0.020031 0.0200332 0.0200355 0.0200379 0.0200404 0.020043 0.0200457 0.0200485 0.0200515 0.0200546 0.0200577 0.020061 0.0200645 0.020068 0.0200716 0.0200754 0.0200793 0.0200833 0.0200874 0.0200917 0.0200961 0.0201006 0.0201052 0.0201099 0.0201148 0.0201198 0.0201248 0.02013 0.0201353 0.0201407 0.0201462 0.0201518 0.0201575 0.0201633 0.0201692 0.0201752 0.0201812 0.0201873 0.0201935 0.0201997 0.020206 0.0202123 0.0202187 0.0202251 0.0202316 0.0202381 0.0202446 0.0202511 0.0202576 0.0202641 0.0202706 0.0202771 0.0202836 0.02029 0.0202964 0.0203027 0.020309 0.0203152 0.0203213 0.0203274 0.0203333 0.0203392 0.020345 0.0203506 0.0203562 0.0203616 0.0203669 0.020372 0.020377 0.0203818 0.0203865 0.020391 0.0203953 0.0203995 0.0204035 0.0204073 0.020411 0.0204144 0.0204177 0.0204208 0.0204237 0.0204264 0.0204289 0.0204312 0.0204334 0.0204354 0.0204371 0.0204388 0.0204402 0.0204414 0.0204425 0.0204434 0.0204441 0.0204447 0.0204451 0.0204453 0.0204454 0.0204453 0.0204451 0.0204448 0.0204443 0.0204437 0.020443 0.0204422 0.0204413 0.0204404 0.0204393 0.0204382 0.020437 0.0204358 0.0204345 0.0204332 0.0204318 0.0204305 0.0204291 0.0204278 0.0204265 0.0204251 0.0204238 0.0204226 0.0204214 0.0204202 0.0204191 0.0204181 0.0204171 0.0204162 0.0204154 0.0204146 0.0204139 0.0204134 0.0204129 0.0204125 0.0204121 0.0204119 0.0204117 0.0204116 0.0204116 0.0204116 0.0204117 0.0204119 0.0204121 0.0204124 0.0204126 0.0204129 0.0204132 0.0204136 0.0204138 0.0204141 0.0204144 0.0204145 0.0204147 0.0204147 0.0204147 0.0204146 0.0204143 0.0204139 0.0204134 0.0204128 0.0204119 0.0204109 0.0204097 0.0204083 0.0204067 0.0204048 0.0204027 0.0204003 0.0203977 0.0203948 0.0203916 0.0203881 0.0203843 0.0203802 0.0203758 0.020371 0.0203659 0.0203604 0.0203547 0.0203485 0.0203421 0.0203352 0.0203281 0.0203205 0.0203127 0.0203045 0.0202959 0.020287 0.0202778 0.0202682 0.0202583 0.020248 0.0202374 0.0202264 0.0202149 0.0202031 0.0201907 0.0201778 0.0201643 0.02015 0.0201349 0.0201188 0.0201015 0.020083 0.0200629 0.0200412 0.0200177 0.019992 0.0199641 0.0199338 0.0199008 0.0198651 0.0198265 0.019785 0.0197405 0.0196931 0.0196429 0.0195901 0.0195349 0.0194775 0.0194183 0.0193577 0.0192961 0.0192338 0.0191712 0.0191085 0.0190455 0.0189816 0.0189169 0.0188518 0.0187867 0.0187215 0.0186562 0.0185906 0.0185244 0.018457 0.0183874 0.0183143 0.0182356 0.0181488 0.0180505 0.0179361 0.0178003 0.0176401 0.0174625 0.0172905 0.017155 0.0170405 0.0168629 0.0165129 0.0160244 0.0154482 0.0147288 0.0138717 0.0129628 0.0119043 0.0104967 0.00867988 0.0073606 0.0108301 0 0 0 0 0 0 0 0 0 0 0 0 0 0 0 0 0 0 0 0 0 0 0 0 0 0 0 0 0 0 0 0 0 0 0 0 0 0 0 0 0 0 0 0 0 0 0 0 0 0 0 0 0 0 0 0 0 0 0 0 0 0 0 0 0 0 0 0 0 0 0 0 0 0 8.67362e-19 
0.0216738 0.0216447 0.0216132 0.0215793 0.0215436 0.0215064 0.0214681 0.0214288 0.0213886 0.0213476 0.0213059 0.0212635 0.0212206 0.0211772 0.0211334 0.0210893 0.021045 0.0210005 0.020956 0.0209115 0.0208672 0.0208231 0.0207795 0.0207362 0.0206936 0.0206516 0.0206105 0.0205702 0.0205309 0.0204927 0.0204557 0.0204199 0.0203855 0.0203526 0.0203212 0.0202913 0.020263 0.0202364 0.0202115 0.0201883 0.0201667 0.0201468 0.0201286 0.020112 0.0200969 0.0200834 0.0200712 0.0200605 0.020051 0.0200427 0.0200354 0.0200292 0.0200239 0.0200194 0.0200156 0.0200124 0.0200098 0.0200076 0.0200059 0.0200045 0.0200034 0.0200026 0.0200019 0.0200014 0.020001 0.0200007 0.0200005 0.0200003 0.0200002 0.0200002 0.0200001 0.0200001 0.02 0.02 0.02 0.02 0.02 0.02 0.02 0.02 0.02 0.02 0.02 0.02 0.02 0.02 0.02 0.02 0.02 0.02 0.02 0.02 0.02 0.02 0.02 0.02 0.02 0.02 0.02 0.02 0.02 0.02 0.02 0.02 0.02 0.02 0.02 0.02 0.02 0.02 0.02 0.02 0.02 0.02 0.02 0.02 0.02 0.02 0.02 0.02 0.02 0.02 0.02 0.02 0.02 0.02 0.02 0.02 0.02 0.02 0.02 0.02 0.02 0.02 0.02 0.02 0.02 0.02 0.02 0.02 0.02 0.02 0.02 0.02 0.02 0.02 0.02 0.02 0.02 0.02 0.02 0.02 0.02 0.02 0.02 0.02 0.02 0.02 0.02 0.02 0.02 0.02 0.02 0.02 0.02 0.02 0.02 0.02 0.02 0.02 0.02 0.02 0.02 0.02 0.02 0.02 0.02 0.02 0.02 0.02 0.02 0.02 0.02 0.02 0.02 0.02 0.02 0.02 0.02 0.02 0.02 0.02 0.02 0.02 0.02 0.0199999 0.0199999 0.0199999 0.0199999 0.0199999 0.0199999 0.0199999 0.0199999 0.0199999 0.0199999 0.0199999 0.0199999 0.0199999 0.0199998 0.0199998 0.0199998 0.0199998 0.0199998 0.0199998 0.0199998 0.0199997 0.0199997 0.0199997 0.0199997 0.0199997 0.0199997 0.0199996 0.0199996 0.0199996 0.0199996 0.0199995 0.0199995 0.0199995 0.0199995 0.0199995 0.0199994 0.0199994 0.0199994 0.0199994 0.0199994 0.0199993 0.0199993 0.0199993 0.0199993 0.0199993 0.0199993 0.0199993 0.0199993 0.0199993 0.0199994 0.0199994 0.0199994 0.0199995 0.0199996 0.0199996 0.0199997 0.0199998 0.0199999 0.0200001 0.0200002 0.0200004 0.0200006 0.0200008 0.020001 0.0200013 0.0200016 0.0200019 0.0200023 0.0200026 0.0200031 0.0200035 0.020004 0.0200046 0.0200052 0.0200058 0.0200065 0.0200073 0.0200081 0.0200089 0.0200098 0.0200108 0.0200119 0.020013 0.0200142 0.0200155 0.0200168 0.0200182 0.0200197 0.0200213 0.020023 0.0200248 0.0200267 0.0200286 0.0200307 0.0200328 0.0200351 0.0200375 0.0200399 0.0200425 0.0200452 0.020048 0.0200509 0.020054 0.0200571 0.0200604 0.0200638 0.0200672 0.0200708 0.0200746 0.0200784 0.0200824 0.0200865 0.0200907 0.020095 0.0200994 0.020104 0.0201087 0.0201135 0.0201184 0.0201234 0.0201285 0.0201338 0.0201391 0.0201445 0.02015 0.0201557 0.0201614 0.0201672 0.020173 0.020179 0.020185 0.0201911 0.0201972 0.0202034 0.0202097 0.020216 0.0202223 0.0202286 0.020235 0.0202414 0.0202478 0.0202542 0.0202606 0.020267 0.0202734 0.0202797 0.020286 0.0202923 0.0202985 0.0203047 0.0203108 0.0203168 0.0203227 0.0203285 0.0203343 0.0203399 0.0203454 0.0203509 0.0203561 0.0203613 0.0203663 0.0203712 0.0203759 0.0203805 0.0203849 0.0203891 0.0203932 0.0203972 0.0204009 0.0204045 0.0204079 0.0204111 0.0204142 0.020417 0.0204197 0.0204223 0.0204246 0.0204268 0.0204287 0.0204305 0.0204322 0.0204336 0.0204349 0.020436 0.0204369 0.0204377 0.0204383 0.0204388 0.0204391 0.0204392 0.0204393 0.0204392 0.0204389 0.0204386 0.0204381 0.0204376 0.0204369 0.0204362 0.0204354 0.0204345 0.0204335 0.0204325 0.0204315 0.0204304 0.0204293 0.0204281 0.020427 0.0204258 0.0204247 0.0204236 0.0204224 0.0204214 0.0204203 0.0204193 0.0204183 0.0204174 0.0204166 0.0204158 0.0204151 0.0204145 0.0204139 0.0204134 0.020413 0.0204127 0.0204124 0.0204123 0.0204122 0.0204121 0.0204122 0.0204123 0.0204125 0.0204127 0.0204129 0.0204132 0.0204136 0.0204139 0.0204143 0.0204147 0.020415 0.0204154 0.0204157 0.020416 0.0204162 0.0204163 0.0204164 0.0204164 0.0204162 0.020416 0.0204156 0.0204151 0.0204144 0.0204135 0.0204125 0.0204112 0.0204098 0.0204081 0.0204062 0.020404 0.0204016 0.0203989 0.0203959 0.0203926 0.020389 0.0203851 0.0203809 0.0203764 0.0203715 0.0203663 0.0203607 0.0203548 0.0203485 0.0203419 0.0203349 0.0203275 0.0203198 0.0203117 0.0203033 0.0202946 0.0202854 0.020276 0.0202662 0.020256 0.0202455 0.0202347 0.0202234 0.0202118 0.0201997 0.0201872 0.020174 0.0201603 0.0201459 0.0201306 0.0201144 0.0200971 0.0200785 0.0200585 0.0200369 0.0200134 0.019988 0.0199603 0.0199303 0.0198978 0.0198626 0.0198246 0.0197838 0.0197401 0.0196936 0.0196444 0.0195926 0.0195385 0.0194823 0.0194243 0.0193649 0.0193044 0.0192432 0.0191815 0.0191194 0.0190567 0.0189932 0.0189286 0.0188631 0.018797 0.0187306 0.0186637 0.0185962 0.0185278 0.0184578 0.0183851 0.0183082 0.0182253 0.0181337 0.0180304 0.017911 0.0177712 0.0176094 0.0174333 0.0172619 0.0171092 0.0169557 0.016734 0.0163825 0.0159047 0.0153258 0.0146343 0.0138041 0.0128726 0.0117218 0.0103109 0.00866754 0.00709061 0.00731677 0 0 0 0 0 0 0 0 0 0 0 0 0 0 0 0 0 0 0 0 0 0 0 0 0 0 0 0 0 0 0 0 0 0 0 0 0 0 0 0 0 0 0 0 0 0 0 0 0 0 0 0 0 0 0 0 0 0 0 0 0 0 0 0 0 0 0 0 0 0 0 0 0 0 0 