# vtk DataFile Version 2.0
iteration 1350
ASCII

DATASET STRUCTURED_POINTS
DIMENSIONS 621 64 1
ORIGIN 0 0 0
SPACING 0.00161031 0.00161031 0.00161031

POINT_DATA 39744
SCALARS P float 1
LOOKUP_TABLE default
0 0 0 0 0 0 0 0 0 0 0 0 0 0 0 0 0 0 0 0 0 0 0 0 0 0 0 0 0 0 0 0 0 0 0 0 0 0 0 0 0 0 0 0 0 0 0 0 0 0 0 0 0 0 0 0 0 0 0 0 0 0 0 0 0 0 0 0 0 0 0 0 0 0 0 0 0 0 0 0 0 0 0 0 0 0 0 0 0 0 0 0 0 0 0 0 0 0 0 0 0 0 0 0 0 0 0 0 0 0 0 0 0 0 0 0 0 0 0 0 0 0 0 0 0 0 0 0 0 0 0 0 0 0 0 0 0 0 0 0 0 0 0 0 0 0 0 0 0 0 0 0 0 0 0 0 0 0 0 0 0 0 0 0 0 0 0 0 0 0 0 0 0 0 0 0 0 0 0 0 0 0 0 0 0 0 0 0 0 0 0 0 0 0 0 0 0 0 0 0 0 0 0 0 0 0 0 0 0 0 0 0 0 0 0 0 0 0 0 0 0 0 0 0 0 0 0 0 0 0 0 0 0 0 0 0 0 0 0 0 0 0 0 0 0 0 0 0 0 0 0 0 0 0 0 0 0 0 0 0 0 0 0 0 0 0 0 0 0 0 0 0 0 0 0 0 0 0 0 0 0 0 0 0 0 0 0 0 0 0 0 0 0 0 0 0 0 0 0 0 0 0 0 0 0 0 0 0 0 0 0 0 0 0 0 0 0 0 0 0 0 0 0 0 0 0 0 0 0 0 0 0 0 0 0 0 0 0 0 0 0 0 0 0 0 0 0 0 0 0 0 0 0 0 0 0 0 0 0 0 0 0 0 0 0 0 0 0 0 0 0 0 0 0 0 0 0 0 0 0 0 0 0 0 0 0 0 0 0 0 0 0 0 0 0 0 0 0 0 0 0 0 0 0 0 0 0 0 0 0 0 0 0 0 0 0 0 0 0 0 0 0 0 0 0 0 0 0 0 0 0 0 0 0 0 0 0 0 0 0 0 0 0 0 0 0 0 0 0 0 0 0 0 0 0 0 0 0 0 0 0 0 0 0 0 0 0 0 0 0 0 0 0 0 0 0 0 0 0 0 0 0 0 0 0 0 0 0 0 0 0 0 0 0 0 0 0 0 0 0 0 0 0 0 0 0 0 0 0 0 0 0 0 0 0 0 0 0 0 0 0 0 0 0 0 0 0 0 0 0 0 0 0 0 0 0 0 0 0 0 0 0 0 0 0 0 0 0 0 0 0 0 0 0 0 0 0 0 0 0 0 0 0 0 0 0 0 0 0 0 0 0 0 0 0 0 0 0 0 0 0 0 0 0 0 0 0 0 0 0 0 0 0 0 0 0 0 0 0 0 0 0 0 0 0 0 0 0 0 0 0 0 0 0 0 0 0 0 0 0 0 
0.02 0.02 0.02 0.02 0.02 0.02 0.02 0.02 0.02 0.02 0.02 0.02 0.02 0.02 0.02 0.02 0.02 0.02 0.02 0.02 0.02 0.02 0.02 0.02 0.02 0.02 0.02 0.02 0.02 0.02 0.02 0.02 0.02 0.02 0.02 0.02 0.02 0.02 0.02 0.02 0.02 0.02 0.02 0.02 0.02 0.02 0.02 0.02 0.02 0.02 0.02 0.02 0.02 0.02 0.02 0.02 0.02 0.02 0.02 0.02 0.02 0.02 0.02 0.02 0.02 0.02 0.02 0.02 0.02 0.02 0.02 0.02 0.02 0.02 0.02 0.02 0.02 0.0199999 0.0199999 0.0199999 0.0199999 0.0199999 0.0199999 0.0199999 0.0199999 0.0199999 0.0199999 0.0199998 0.0199998 0.0199998 0.0199998 0.0199998 0.0199997 0.0199997 0.0199997 0.0199996 0.0199996 0.0199996 0.0199995 0.0199995 0.0199994 0.0199993 0.0199993 0.0199992 0.0199991 0.019999 0.019999 0.0199989 0.0199987 0.0199986 0.0199985 0.0199984 0.0199982 0.019998 0.0199979 0.0199977 0.0199975 0.0199973 0.019997 0.0199968 0.0199965 0.0199962 0.0199959 0.0199956 0.0199952 0.0199948 0.0199944 0.0199939 0.0199935 0.019993 0.0199925 0.0199919 0.0199913 0.0199907 0.01999 0.0199893 0.0199886 0.0199878 0.0199871 0.0199862 0.0199854 0.0199845 0.0199836 0.0199827 0.0199817 0.0199808 0.0199798 0.0199788 0.0199779 0.0199769 0.019976 0.0199751 0.0199743 0.0199735 0.0199728 0.0199722 0.0199717 0.0199713 0.0199711 0.019971 0.0199711 0.0199715 0.0199721 0.0199729 0.019974 0.0199755 0.0199773 0.0199795 0.019982 0.019985 0.0199885 0.0199925 0.0199969 0.020002 0.0200075 0.0200137 0.0200205 0.0200279 0.0200359 0.0200447 0.0200541 0.0200642 0.0200751 0.0200867 0.020099 0.020112 0.0201257 0.0201401 0.0201552 0.0201709 0.0201873 0.0202043 0.0202218 0.0202399 0.0202586 0.0202777 0.0202972 0.0203172 0.0203375 0.0203581 0.0203791 0.0204002 0.0204216 0.0204431 0.0204647 0.0204863 0.0205079 0.0205295 0.020551 0.0205724 0.0205935 0.0206144 0.020635 0.0206552 0.0206751 0.0206945 0.0207135 0.0207319 0.0207497 0.020767 0.0207836 0.0207994 0.0208146 0.0208289 0.0208424 0.0208551 0.0208668 0.0208777 0.0208875 0.0208963 0.0209041 0.0209108 0.0209164 0.0209209 0.0209242 0.0209263 0.0209272 0.0209269 0.0209253 0.0209225 0.0209184 0.0209131 0.0209065 0.0208986 0.0208895 0.0208792 0.0208676 0.0208549 0.0208409 0.0208258 0.0208096 0.0207923 0.0207739 0.0207546 0.0207343 0.020713 0.020691 0.0206681 0.0206444 0.0206201 0.0205951 0.0205695 0.0205434 0.0205168 0.0204897 0.0204623 0.0204345 0.0204063 0.0203779 0.0203492 0.0203203 0.0202912 0.0202618 0.0202323 0.0202025 0.0201726 0.0201425 0.0201122 0.0200817 0.0200509 0.0200199 0.0199886 0.0199568 0.0199245 0.0198914 0.0198571 0.0198213 0.0197831 0.0197412 0.0196942 0.0196379 0.0195699 0.0195 0.0194398 0.0193766 0.0193077 0.0192324 0.0191501 0.0190599 0.0189609 0.0188521 0.0187327 0.0186013 0.0184569 0.0182981 0.0181233 0.0179312 0.0177201 0.0174884 0.0172338 0.0169593 0.016658 0.0163354 0.0160275 0.0160854 0.0162858 0.0184533 0 0 0 0 0 0 0 0 0 0 0 0 0 0 0 0 0 0 0 0 0 0 0 0 0 0 0 0 0 0 0 0 0 0 0 0 0 0 0 0 0 0 0 0 0 0 0 0 0 0 0 0 0 0 0 0 0 0 0 0 0 0 0 0 0 0 0 0 0 0 0 0 0 0 0 0 0 0 0 0 0 0 0 0 0 0 0 0 0 0 0 0 0 0 0 0 0 0 0 0 0 0 0 0 0 0 0 0 0 0 0 0 0 0 0 0 0 0 0 0 0 0 0 0 0 0 0 0 0 0 0 0 0 0 0 0 0 0 0 0 0 0 0 0 0 0 0 0 0 0 0 0 0 0 0 0 0 0 0 0 0 0 0 0 0 0 0 0 0 0 0 0 0 0 0 0 0 0 0 0 0 0 0 0 0 0 0 0 0 0 0 0 0 0 0 0 0 0 0 0 0 0 0 0 0 0 0 0 0 0 0 0 0 0 0 0 0 0 0 0 0 0 0 0 0 0 0 0 0 0 0 0 0 0 0 0 0 0 0 0 0 0 0 0 0 0 0 0 0 0 0 0 0 0 0 0 0 0 0 0 0 0 0 0 0 0 0 0 0 0 0 0 0 0 0 0 0 0 0 0 0 0 0 0 0 0 0 0 0 0 0 0 0 0 0 0 0 0 0 0 0 0 0 0 
0.02 0.02 0.02 0.02 0.02 0.02 0.02 0.02 0.02 0.02 0.02 0.02 0.02 0.02 0.02 0.02 0.02 0.02 0.02 0.02 0.02 0.02 0.02 0.02 0.02 0.02 0.02 0.02 0.02 0.02 0.02 0.02 0.02 0.02 0.02 0.02 0.02 0.02 0.02 0.02 0.02 0.02 0.02 0.02 0.02 0.02 0.02 0.02 0.02 0.02 0.02 0.02 0.02 0.02 0.02 0.02 0.02 0.02 0.02 0.02 0.02 0.02 0.02 0.02 0.02 0.02 0.02 0.02 0.02 0.02 0.02 0.02 0.02 0.02 0.02 0.02 0.02 0.02 0.0199999 0.0199999 0.0199999 0.0199999 0.0199999 0.0199999 0.0199999 0.0199999 0.0199999 0.0199998 0.0199998 0.0199998 0.0199998 0.0199998 0.0199997 0.0199997 0.0199997 0.0199996 0.0199996 0.0199996 0.0199995 0.0199995 0.0199994 0.0199994 0.0199993 0.0199992 0.0199991 0.0199991 0.019999 0.0199989 0.0199988 0.0199987 0.0199985 0.0199984 0.0199982 0.0199981 0.0199979 0.0199977 0.0199975 0.0199973 0.0199971 0.0199968 0.0199966 0.0199963 0.019996 0.0199956 0.0199953 0.0199949 0.0199945 0.019994 0.0199936 0.0199931 0.0199926 0.019992 0.0199914 0.0199908 0.0199902 0.0199895 0.0199888 0.019988 0.0199872 0.0199864 0.0199856 0.0199847 0.0199838 0.0199829 0.0199819 0.019981 0.01998 0.0199791 0.0199781 0.0199772 0.0199762 0.0199754 0.0199745 0.0199737 0.019973 0.0199724 0.0199719 0.0199715 0.0199713 0.0199712 0.0199713 0.0199717 0.0199722 0.0199731 0.0199742 0.0199756 0.0199774 0.0199795 0.0199821 0.0199851 0.0199885 0.0199924 0.0199968 0.0200018 0.0200073 0.0200134 0.0200202 0.0200275 0.0200355 0.0200442 0.0200535 0.0200636 0.0200743 0.0200858 0.020098 0.0201109 0.0201246 0.0201389 0.0201539 0.0201695 0.0201858 0.0202026 0.0202201 0.0202381 0.0202566 0.0202756 0.0202951 0.0203149 0.0203352 0.0203557 0.0203766 0.0203977 0.020419 0.0204404 0.020462 0.0204836 0.0205052 0.0205267 0.0205482 0.0205695 0.0205907 0.0206116 0.0206322 0.0206525 0.0206725 0.020692 0.020711 0.0207296 0.0207475 0.0207649 0.0207817 0.0207977 0.020813 0.0208276 0.0208413 0.0208543 0.0208663 0.0208774 0.0208875 0.0208967 0.0209048 0.0209118 0.0209178 0.0209226 0.0209263 0.0209288 0.0209301 0.0209302 0.0209291 0.0209267 0.020923 0.0209181 0.020912 0.0209045 0.0208958 0.0208859 0.0208747 0.0208623 0.0208487 0.0208339 0.020818 0.0208009 0.0207828 0.0207637 0.0207435 0.0207224 0.0207005 0.0206776 0.020654 0.0206296 0.0206046 0.0205789 0.0205527 0.0205259 0.0204986 0.0204709 0.0204429 0.0204145 0.0203858 0.0203568 0.0203275 0.020298 0.0202683 0.0202384 0.0202083 0.0201779 0.0201474 0.0201166 0.0200856 0.0200543 0.0200227 0.0199906 0.0199579 0.0199245 0.0198901 0.0198542 0.0198163 0.0197756 0.0197311 0.0196813 0.0196261 0.0195636 0.0195024 0.019442 0.0193784 0.0193092 0.0192336 0.019151 0.0190605 0.0189613 0.0188523 0.0187325 0.0186009 0.0184562 0.0182971 0.018122 0.0179297 0.0177186 0.0174869 0.0172333 0.0169616 0.0166753 0.0163543 0.0160974 0.0160479 0.0155364 0.0159947 0.0155406 0.014781 0.0142237 0.0136433 0.0130297 0.0123577 0.0115781 0.0106436 0.00967944 0.00875829 0.0079995 0.00835585 0 0 0 0 0 0 0 0 0 0 0 0 0 0 0 0 0 0 0 0 0 0 0 0 0 0 0 0 0 0 0 0 0 0 0 0 0 0 0 0 0 0 0 0 0 0 0 0 0 0 0 0 0 0 0 0 0 0 0 0 0 0 0 0 0 0 0 0 0 0 0 0 0 0 0 0 0 0 0 0 0 0 0 0 0 0 0 0 0 0 0 0 0 0 0 0 0 0 0 0 0 0 0 0 0 0 0 0 0 0 0 0 0 0 0 0 0 0 0 0 0 0 0 0 0 0 0 0 0 0 0 0 0 0 0 0 0 0 0 0 0 0 0 0 0 0 0 0 0 0 0 0 0 0 0 0 0 0 0 0 0 0 0 0 0 0 0 0 0 0 0 0 0 0 0 0 0 0 0 0 0 0 0 0 0 0 0 0 0 0 0 0 0 0 0 0 0 0 0 0 0 0 0 0 0 0 0 0 0 0 0 0 0 0 0 0 0 0 0 0 0 0 0 0 0 0 0 0 0 0 0 0 0 0 0 0 0 0 0 0 0 0 0 0 0 0 0 0 0 0 0 0 0 0 0 0 0 0 0 0 0 0 0 0 0 0 0 0 0 0 0 0 0 0 0 0 0 0 0 0 0 0 0 0 0 0 0 0 0 0 0 0 
0.02 0.02 0.02 0.02 0.02 0.02 0.02 0.02 0.02 0.02 0.02 0.02 0.02 0.02 0.02 0.02 0.02 0.02 0.02 0.02 0.02 0.02 0.02 0.02 0.02 0.02 0.02 0.02 0.02 0.02 0.02 0.02 0.02 0.02 0.02 0.02 0.02 0.02 0.02 0.02 0.02 0.02 0.02 0.02 0.02 0.02 0.02 0.02 0.02 0.02 0.02 0.02 0.02 0.02 0.02 0.02 0.02 0.02 0.02 0.02 0.02 0.02 0.02 0.02 0.02 0.02 0.02 0.02 0.02 0.02 0.02 0.02 0.02 0.02 0.02 0.02 0.02 0.02 0.0199999 0.0199999 0.0199999 0.0199999 0.0199999 0.0199999 0.0199999 0.0199999 0.0199999 0.0199999 0.0199998 0.0199998 0.0199998 0.0199998 0.0199997 0.0199997 0.0199997 0.0199997 0.0199996 0.0199996 0.0199995 0.0199995 0.0199994 0.0199994 0.0199993 0.0199992 0.0199992 0.0199991 0.019999 0.0199989 0.0199988 0.0199987 0.0199986 0.0199984 0.0199983 0.0199981 0.019998 0.0199978 0.0199976 0.0199974 0.0199971 0.0199969 0.0199966 0.0199963 0.019996 0.0199957 0.0199954 0.019995 0.0199946 0.0199942 0.0199937 0.0199932 0.0199927 0.0199921 0.0199916 0.019991 0.0199903 0.0199896 0.0199889 0.0199882 0.0199874 0.0199866 0.0199858 0.0199849 0.019984 0.0199831 0.0199822 0.0199812 0.0199803 0.0199793 0.0199784 0.0199774 0.0199765 0.0199756 0.0199748 0.019974 0.0199733 0.0199727 0.0199722 0.0199718 0.0199716 0.0199715 0.0199717 0.019972 0.0199725 0.0199734 0.0199745 0.0199759 0.0199776 0.0199798 0.0199823 0.0199853 0.0199887 0.0199925 0.0199969 0.0200019 0.0200073 0.0200134 0.02002 0.0200273 0.0200352 0.0200438 0.020053 0.020063 0.0200736 0.020085 0.0200971 0.0201099 0.0201234 0.0201375 0.0201524 0.0201679 0.020184 0.0202007 0.020218 0.0202359 0.0202543 0.0202731 0.0202924 0.0203121 0.0203322 0.0203526 0.0203733 0.0203943 0.0204154 0.0204367 0.0204582 0.0204797 0.0205012 0.0205226 0.020544 0.0205653 0.0205864 0.0206073 0.0206279 0.0206482 0.0206682 0.0206877 0.0207068 0.0207255 0.0207436 0.0207611 0.020778 0.0207942 0.0208098 0.0208246 0.0208386 0.0208518 0.0208641 0.0208756 0.0208861 0.0208957 0.0209042 0.0209117 0.0209181 0.0209235 0.0209277 0.0209307 0.0209326 0.0209333 0.0209327 0.0209309 0.0209279 0.0209236 0.020918 0.0209112 0.0209031 0.0208937 0.0208831 0.0208713 0.0208582 0.0208439 0.0208285 0.0208119 0.0207942 0.0207754 0.0207556 0.0207348 0.020713 0.0206904 0.0206669 0.0206426 0.0206176 0.020592 0.0205657 0.0205388 0.0205114 0.0204836 0.0204554 0.0204268 0.0203978 0.0203686 0.0203391 0.0203094 0.0202794 0.0202493 0.0202189 0.0201883 0.0201574 0.0201264 0.020095 0.0200633 0.0200311 0.0199984 0.0199649 0.0199305 0.0198947 0.0198572 0.0198174 0.0197745 0.0197282 0.0196779 0.0196236 0.019567 0.0195093 0.0194493 0.0193851 0.0193154 0.0192394 0.0191562 0.0190652 0.0189653 0.0188558 0.0187354 0.0186031 0.0184577 0.0182979 0.018122 0.0179289 0.0177175 0.0174861 0.0172349 0.0169705 0.0167107 0.0164351 0.0162013 0.0161329 0.0160932 0.0157273 0.0152827 0.0147376 0.0141833 0.0136002 0.012967 0.0122692 0.0114858 0.0106131 0.0097238 0.00881832 0.00801952 0.00740195 0.00640549 0.00510203 0.00379981 0.00240288 0.000983953 -0.000577176 -0.00180006 0 0 0 0 0 0 0 0 0 0 0 0 0 0 0 0 0 0 0 0 0 0 0 0 0 0 0 0 0 0 0 0 0 0 0 0 0 0 0 0 0 0 0 0 0 0 0 0 0 0 0 0 0 0 0 0 0 0 0 0 0 0 0 0 0 0 0 0 0 0 0 0 0 0 0 0 0 0 0 0 0 0 0 0 0 0 0 0 0 0 0 0 0 0 0 0 0 0 0 0 0 0 0 0 0 0 0 0 0 0 0 0 0 0 0 0 0 0 0 0 0 0 0 0 0 0 0 0 0 0 0 0 0 0 0 0 0 0 0 0 0 0 0 0 0 0 0 0 0 0 0 0 0 0 0 0 0 0 0 0 0 0 0 0 0 0 0 0 0 0 0 0 0 0 0 0 0 0 0 0 0 0 0 0 0 0 0 0 0 0 0 0 0 0 0 0 0 0 0 0 0 0 0 0 0 0 0 0 0 0 0 0 0 0 0 0 0 0 0 0 0 0 0 0 0 0 0 0 0 0 0 0 0 0 0 0 0 0 0 0 0 0 0 0 0 0 0 0 0 0 0 0 0 0 0 0 0 0 0 0 0 0 0 0 0 0 0 0 0 0 0 0 0 0 0 0 0 0 0 0 0 0 0 0 -4.33681e-19 
0.02 0.02 0.02 0.02 0.02 0.02 0.02 0.02 0.02 0.02 0.02 0.02 0.02 0.02 0.02 0.02 0.02 0.02 0.02 0.02 0.02 0.02 0.02 0.02 0.02 0.02 0.02 0.02 0.02 0.02 0.02 0.02 0.02 0.02 0.02 0.02 0.02 0.02 0.02 0.02 0.02 0.02 0.02 0.02 0.02 0.02 0.02 0.02 0.02 0.02 0.02 0.02 0.02 0.02 0.02 0.02 0.02 0.02 0.02 0.02 0.02 0.02 0.02 0.02 0.02 0.02 0.02 0.02 0.02 0.02 0.02 0.02 0.02 0.02 0.02 0.02 0.02 0.02 0.0199999 0.0199999 0.0199999 0.0199999 0.0199999 0.0199999 0.0199999 0.0199999 0.0199999 0.0199999 0.0199998 0.0199998 0.0199998 0.0199998 0.0199998 0.0199997 0.0199997 0.0199997 0.0199996 0.0199996 0.0199995 0.0199995 0.0199995 0.0199994 0.0199993 0.0199993 0.0199992 0.0199991 0.019999 0.0199989 0.0199988 0.0199987 0.0199986 0.0199985 0.0199983 0.0199982 0.019998 0.0199978 0.0199976 0.0199974 0.0199972 0.019997 0.0199967 0.0199964 0.0199961 0.0199958 0.0199955 0.0199951 0.0199947 0.0199943 0.0199938 0.0199933 0.0199928 0.0199923 0.0199917 0.0199911 0.0199905 0.0199898 0.0199891 0.0199884 0.0199876 0.0199868 0.019986 0.0199852 0.0199843 0.0199834 0.0199825 0.0199815 0.0199806 0.0199796 0.0199787 0.0199778 0.0199769 0.019976 0.0199752 0.0199744 0.0199737 0.0199731 0.0199726 0.0199723 0.019972 0.019972 0.0199721 0.0199724 0.019973 0.0199738 0.0199749 0.0199763 0.019978 0.0199801 0.0199827 0.0199856 0.019989 0.0199928 0.0199972 0.020002 0.0200075 0.0200135 0.02002 0.0200272 0.0200351 0.0200435 0.0200527 0.0200625 0.020073 0.0200842 0.0200961 0.0201088 0.0201221 0.0201361 0.0201508 0.0201661 0.020182 0.0201985 0.0202156 0.0202333 0.0202515 0.0202701 0.0202892 0.0203087 0.0203286 0.0203488 0.0203693 0.0203901 0.020411 0.0204322 0.0204534 0.0204747 0.0204961 0.0205174 0.0205387 0.0205599 0.0205809 0.0206017 0.0206223 0.0206426 0.0206626 0.0206822 0.0207013 0.0207201 0.0207383 0.020756 0.020773 0.0207895 0.0208053 0.0208204 0.0208348 0.0208483 0.0208611 0.020873 0.0208839 0.020894 0.0209031 0.0209111 0.0209182 0.0209241 0.020929 0.0209327 0.0209353 0.0209367 0.0209369 0.0209359 0.0209336 0.0209301 0.0209253 0.0209192 0.0209119 0.0209033 0.0208934 0.0208823 0.0208699 0.0208563 0.0208414 0.0208254 0.0208082 0.02079 0.0207706 0.0207501 0.0207287 0.0207063 0.0206831 0.020659 0.0206341 0.0206084 0.0205821 0.0205552 0.0205278 0.0204999 0.0204715 0.0204427 0.0204136 0.0203842 0.0203545 0.0203245 0.0202943 0.0202639 0.0202333 0.0202024 0.0201713 0.0201399 0.0201082 0.020076 0.0200433 0.0200099 0.0199755 0.0199401 0.0199031 0.0198642 0.0198231 0.0197794 0.0197328 0.0196835 0.0196316 0.0195777 0.0195213 0.0194614 0.0193967 0.0193264 0.0192496 0.0191658 0.019074 0.0189734 0.018863 0.0187418 0.0186086 0.0184622 0.0183013 0.0181245 0.0179306 0.0177191 0.0174899 0.0172445 0.016994 0.016756 0.0165379 0.0163141 0.0161611 0.0159586 0.0156394 0.0152061 0.0147016 0.0141523 0.0135681 0.012922 0.0122104 0.0114311 0.0106008 0.00975561 0.00890358 0.00806546 0.00722763 0.00622644 0.00500605 0.00373598 0.00237925 0.00100145 -0.000372664 -0.00200207 -0.0037241 -0.00558845 -0.00753498 -0.0101977 -0.0118274 0 0 0 0 0 0 0 0 0 0 0 0 0 0 0 0 0 0 0 0 0 0 0 0 0 0 0 0 0 0 0 0 0 0 0 0 0 0 0 0 0 0 0 0 0 0 0 0 0 0 0 0 0 0 0 0 0 0 0 0 0 0 0 0 0 0 0 0 0 0 0 0 0 0 0 0 0 0 0 0 0 0 0 0 0 0 0 0 0 0 0 0 0 0 0 0 0 0 0 0 0 0 0 0 0 0 0 0 0 0 0 0 0 0 0 0 0 0 0 0 0 0 0 0 0 0 0 0 0 0 0 0 0 0 0 0 0 0 0 0 0 0 0 0 0 0 0 0 0 0 0 0 0 0 0 0 0 0 0 0 0 0 0 0 0 0 0 0 0 0 0 0 0 0 0 0 0 0 0 0 0 0 0 0 0 0 0 0 0 0 0 0 0 0 0 0 0 0 0 0 0 0 0 0 0 0 0 0 0 0 0 0 0 0 0 0 0 0 0 0 0 0 0 0 0 0 0 0 0 0 0 0 0 0 0 0 0 0 0 0 0 0 0 0 0 0 0 0 0 0 0 0 0 0 0 0 0 0 0 0 0 0 0 0 0 0 0 0 0 0 0 0 0 0 0 0 0 0 0 -4.33681e-19 
0.02 0.02 0.02 0.02 0.02 0.02 0.02 0.02 0.02 0.02 0.02 0.02 0.02 0.02 0.02 0.02 0.02 0.02 0.02 0.02 0.02 0.02 0.02 0.02 0.02 0.02 0.02 0.02 0.02 0.02 0.02 0.02 0.02 0.02 0.02 0.02 0.02 0.02 0.02 0.02 0.02 0.02 0.02 0.02 0.02 0.02 0.02 0.02 0.02 0.02 0.02 0.02 0.02 0.02 0.02 0.02 0.02 0.02 0.02 0.02 0.02 0.02 0.02 0.02 0.02 0.02 0.02 0.02 0.02 0.02 0.02 0.02 0.02 0.02 0.02 0.02 0.02 0.02 0.02 0.0199999 0.0199999 0.0199999 0.0199999 0.0199999 0.0199999 0.0199999 0.0199999 0.0199999 0.0199998 0.0199998 0.0199998 0.0199998 0.0199998 0.0199997 0.0199997 0.0199997 0.0199996 0.0199996 0.0199996 0.0199995 0.0199995 0.0199994 0.0199994 0.0199993 0.0199992 0.0199991 0.0199991 0.019999 0.0199989 0.0199988 0.0199986 0.0199985 0.0199984 0.0199982 0.0199981 0.0199979 0.0199977 0.0199975 0.0199973 0.019997 0.0199968 0.0199965 0.0199962 0.0199959 0.0199956 0.0199952 0.0199948 0.0199944 0.019994 0.0199935 0.019993 0.0199925 0.0199919 0.0199913 0.0199907 0.0199901 0.0199894 0.0199886 0.0199879 0.0199871 0.0199863 0.0199855 0.0199846 0.0199837 0.0199828 0.0199819 0.019981 0.0199801 0.0199791 0.0199782 0.0199773 0.0199765 0.0199757 0.0199749 0.0199743 0.0199737 0.0199732 0.0199728 0.0199726 0.0199725 0.0199727 0.019973 0.0199735 0.0199743 0.0199754 0.0199768 0.0199786 0.0199807 0.0199832 0.0199861 0.0199894 0.0199932 0.0199975 0.0200024 0.0200077 0.0200137 0.0200202 0.0200273 0.020035 0.0200434 0.0200524 0.020062 0.0200724 0.0200834 0.0200952 0.0201076 0.0201207 0.0201345 0.020149 0.020164 0.0201798 0.0201961 0.0202129 0.0202303 0.0202482 0.0202666 0.0202855 0.0203047 0.0203244 0.0203443 0.0203646 0.0203851 0.0204058 0.0204267 0.0204478 0.0204689 0.0204901 0.0205112 0.0205324 0.0205534 0.0205743 0.0205951 0.0206156 0.0206358 0.0206558 0.0206754 0.0206947 0.0207135 0.0207318 0.0207497 0.020767 0.0207837 0.0207998 0.0208153 0.02083 0.020844 0.0208572 0.0208696 0.0208812 0.0208918 0.0209015 0.0209103 0.020918 0.0209247 0.0209304 0.0209349 0.0209383 0.0209406 0.0209417 0.0209415 0.0209402 0.0209375 0.0209337 0.0209285 0.0209221 0.0209144 0.0209054 0.0208951 0.0208835 0.0208707 0.0208566 0.0208413 0.0208247 0.020807 0.0207881 0.0207682 0.0207471 0.0207251 0.0207021 0.0206782 0.0206534 0.0206279 0.0206016 0.0205747 0.0205472 0.0205191 0.0204906 0.0204617 0.0204324 0.0204028 0.0203729 0.0203427 0.0203123 0.0202817 0.0202509 0.0202198 0.0201884 0.0201567 0.0201246 0.020092 0.0200587 0.0200247 0.0199897 0.0199534 0.0199157 0.0198762 0.0198348 0.0197913 0.0197456 0.0196977 0.0196475 0.0195947 0.0195386 0.0194783 0.0194129 0.0193418 0.0192643 0.0191797 0.019087 0.0189854 0.018874 0.0187517 0.0186173 0.0184698 0.0183078 0.01813 0.0179356 0.017725 0.0175004 0.0172651 0.0170297 0.0168114 0.0166177 0.0164194 0.0161774 0.0159336 0.0155879 0.0151547 0.0146666 0.014125 0.0135337 0.0128821 0.0121692 0.0114051 0.0106047 0.00979054 0.00895537 0.00805546 0.00714989 0.0060988 0.00492163 0.00366741 0.00233832 0.000962509 -0.000498172 -0.00208589 -0.00377117 -0.00555344 -0.007443 -0.00964735 -0.0118967 -0.0143495 -0.0166874 -0.0213602 0 0 0 0 0 0 0 0 0 0 0 0 0 0 0 0 0 0 0 0 0 0 0 0 0 0 0 0 0 0 0 0 0 0 0 0 0 0 0 0 0 0 0 0 0 0 0 0 0 0 0 0 0 0 0 0 0 0 0 0 0 0 0 0 0 0 0 0 0 0 0 0 0 0 0 0 0 0 0 0 0 0 0 0 0 0 0 0 0 0 0 0 0 0 0 0 0 0 0 0 0 0 0 0 0 0 0 0 0 0 0 0 0 0 0 0 0 0 0 0 0 0 0 0 0 0 0 0 0 0 0 0 0 0 0 0 0 0 0 0 0 0 0 0 0 0 0 0 0 0 0 0 0 0 0 0 0 0 0 0 0 0 0 0 0 0 0 0 0 0 0 0 0 0 0 0 0 0 0 0 0 0 0 0 0 0 0 0 0 0 0 0 0 0 0 0 0 0 0 0 0 0 0 0 0 0 0 0 0 0 0 0 0 0 0 0 0 0 0 0 0 0 0 0 0 0 0 0 0 0 0 0 0 0 0 0 0 0 0 0 0 0 0 0 0 0 0 0 0 0 0 0 0 0 0 0 0 0 0 0 0 0 0 0 0 0 0 0 0 0 0 0 0 0 0 -0.00471185 -4.33681e-19 
0.02 0.02 0.02 0.02 0.02 0.02 0.02 0.02 0.02 0.02 0.02 0.02 0.02 0.02 0.02 0.02 0.02 0.02 0.02 0.02 0.02 0.02 0.02 0.02 0.02 0.02 0.02 0.02 0.02 0.02 0.02 0.02 0.02 0.02 0.02 0.02 0.02 0.02 0.02 0.02 0.02 0.02 0.02 0.02 0.02 0.02 0.02 0.02 0.02 0.02 0.02 0.02 0.02 0.02 0.02 0.02 0.02 0.02 0.02 0.02 0.02 0.02 0.02 0.02 0.02 0.02 0.02 0.02 0.02 0.02 0.02 0.02 0.02 0.02 0.02 0.02 0.02 0.02 0.02 0.0199999 0.0199999 0.0199999 0.0199999 0.0199999 0.0199999 0.0199999 0.0199999 0.0199999 0.0199999 0.0199998 0.0199998 0.0199998 0.0199998 0.0199997 0.0199997 0.0199997 0.0199997 0.0199996 0.0199996 0.0199995 0.0199995 0.0199994 0.0199994 0.0199993 0.0199992 0.0199992 0.0199991 0.019999 0.0199989 0.0199988 0.0199987 0.0199986 0.0199984 0.0199983 0.0199981 0.019998 0.0199978 0.0199976 0.0199974 0.0199971 0.0199969 0.0199966 0.0199963 0.019996 0.0199957 0.0199954 0.019995 0.0199946 0.0199941 0.0199937 0.0199932 0.0199927 0.0199921 0.0199916 0.019991 0.0199903 0.0199897 0.0199889 0.0199882 0.0199875 0.0199867 0.0199858 0.019985 0.0199841 0.0199832 0.0199824 0.0199815 0.0199805 0.0199796 0.0199788 0.0199779 0.0199771 0.0199763 0.0199756 0.0199749 0.0199743 0.0199738 0.0199735 0.0199733 0.0199732 0.0199734 0.0199737 0.0199742 0.019975 0.0199761 0.0199775 0.0199792 0.0199813 0.0199838 0.0199866 0.01999 0.0199937 0.019998 0.0200028 0.0200081 0.020014 0.0200204 0.0200274 0.0200351 0.0200433 0.0200522 0.0200617 0.0200718 0.0200827 0.0200942 0.0201064 0.0201193 0.0201328 0.020147 0.0201618 0.0201773 0.0201933 0.0202099 0.020227 0.0202446 0.0202627 0.0202813 0.0203002 0.0203195 0.0203392 0.0203592 0.0203794 0.0203999 0.0204205 0.0204413 0.0204622 0.0204831 0.0205041 0.020525 0.0205459 0.0205667 0.0205873 0.0206077 0.020628 0.0206479 0.0206676 0.0206869 0.0207058 0.0207243 0.0207424 0.0207599 0.0207769 0.0207934 0.0208092 0.0208244 0.0208389 0.0208526 0.0208656 0.0208778 0.0208891 0.0208996 0.0209091 0.0209176 0.0209252 0.0209317 0.0209372 0.0209416 0.0209448 0.0209469 0.0209478 0.0209474 0.0209459 0.020943 0.0209389 0.0209335 0.0209268 0.0209188 0.0209095 0.0208988 0.0208868 0.0208736 0.020859 0.0208432 0.0208261 0.0208078 0.0207884 0.0207678 0.0207461 0.0207234 0.0206997 0.0206751 0.0206496 0.0206234 0.0205965 0.0205689 0.0205408 0.0205122 0.0204831 0.0204537 0.020424 0.0203939 0.0203636 0.0203331 0.0203023 0.0202713 0.02024 0.0202084 0.0201765 0.0201442 0.0201113 0.0200777 0.0200434 0.0200081 0.0199716 0.0199338 0.0198945 0.0198536 0.0198108 0.0197661 0.0197192 0.0196697 0.019617 0.0195605 0.0194996 0.0194335 0.0193616 0.0192832 0.0191976 0.0191039 0.0190012 0.0188886 0.018765 0.0186293 0.0184805 0.0183173 0.0181388 0.0179448 0.0177366 0.0175185 0.0172958 0.0170752 0.0168678 0.0166754 0.0164827 0.0162446 0.0159357 0.0155582 0.0151228 0.0146368 0.0140968 0.0134993 0.0128474 0.0121417 0.0113953 0.0106136 0.00981113 0.00897725 0.00808817 0.00709923 0.00601758 0.00485298 0.00361241 0.00229284 0.000903975 -0.000575614 -0.00216045 -0.00382725 -0.00560998 -0.00754798 -0.00963422 -0.011791 -0.0140852 -0.0163573 -0.019292 -0.0224497 -0.0254179 -0.0304962 -0.0318293 0 0 0 0 0 0 0 0 0 0 0 0 0 0 0 0 0 0 0 0 0 0 0 0 0 0 0 0 0 0 0 0 0 0 0 0 0 0 0 0 0 0 0 0 0 0 0 0 0 0 0 0 0 0 0 0 0 0 0 0 0 0 0 0 0 0 0 0 0 0 0 0 0 0 0 0 0 0 0 0 0 0 0 0 0 0 0 0 0 0 0 0 0 0 0 0 0 0 0 0 0 0 0 0 0 0 0 0 0 0 0 0 0 0 0 0 0 0 0 0 0 0 0 0 0 0 0 0 0 0 0 0 0 0 0 0 0 0 0 0 0 0 0 0 0 0 0 0 0 0 0 0 0 0 0 0 0 0 0 0 0 0 0 0 0 0 0 0 0 0 0 0 0 0 0 0 0 0 0 0 0 0 0 0 0 0 0 0 0 0 0 0 0 0 0 0 0 0 0 0 0 0 0 0 0 0 0 0 0 0 0 0 0 0 0 0 0 0 0 0 0 0 0 0 0 0 0 0 0 0 0 0 0 0 0 0 0 0 0 0 0 0 0 0 0 0 0 0 0 0 0 0 0 0 0 0 0 0 0 0 0 0 0 0 0 0 0 0 0 0 -0.016954 -0.0086032 -1.51788e-18 
0.02 0.02 0.02 0.02 0.02 0.02 0.02 0.02 0.02 0.02 0.02 0.02 0.02 0.02 0.02 0.02 0.02 0.02 0.02 0.02 0.02 0.02 0.02 0.02 0.02 0.02 0.02 0.02 0.02 0.02 0.02 0.02 0.02 0.02 0.02 0.02 0.02 0.02 0.02 0.02 0.02 0.02 0.02 0.02 0.02 0.02 0.02 0.02 0.02 0.02 0.02 0.02 0.02 0.02 0.02 0.02 0.02 0.02 0.02 0.02 0.02 0.02 0.02 0.02 0.02 0.02 0.02 0.02 0.02 0.02 0.02 0.02 0.02 0.02 0.02 0.02 0.02 0.02 0.02 0.0199999 0.0199999 0.0199999 0.0199999 0.0199999 0.0199999 0.0199999 0.0199999 0.0199999 0.0199999 0.0199998 0.0199998 0.0199998 0.0199998 0.0199998 0.0199997 0.0199997 0.0199997 0.0199996 0.0199996 0.0199996 0.0199995 0.0199995 0.0199994 0.0199993 0.0199993 0.0199992 0.0199991 0.019999 0.019999 0.0199989 0.0199987 0.0199986 0.0199985 0.0199984 0.0199982 0.019998 0.0199979 0.0199977 0.0199975 0.0199972 0.019997 0.0199967 0.0199965 0.0199962 0.0199959 0.0199955 0.0199951 0.0199948 0.0199943 0.0199939 0.0199934 0.0199929 0.0199924 0.0199918 0.0199913 0.0199906 0.01999 0.0199893 0.0199886 0.0199878 0.0199871 0.0199863 0.0199855 0.0199846 0.0199838 0.0199829 0.019982 0.0199811 0.0199802 0.0199794 0.0199786 0.0199777 0.019977 0.0199763 0.0199756 0.0199751 0.0199746 0.0199743 0.0199741 0.0199741 0.0199742 0.0199745 0.0199751 0.0199759 0.019977 0.0199783 0.01998 0.0199821 0.0199845 0.0199874 0.0199906 0.0199944 0.0199986 0.0200033 0.0200085 0.0200143 0.0200207 0.0200276 0.0200351 0.0200432 0.020052 0.0200613 0.0200713 0.0200819 0.0200932 0.0201052 0.0201178 0.020131 0.0201449 0.0201594 0.0201746 0.0201903 0.0202065 0.0202233 0.0202406 0.0202584 0.0202766 0.0202952 0.0203142 0.0203335 0.0203531 0.020373 0.0203932 0.0204135 0.020434 0.0204546 0.0204753 0.020496 0.0205167 0.0205374 0.020558 0.0205785 0.0205989 0.020619 0.020639 0.0206586 0.020678 0.0206971 0.0207157 0.020734 0.0207518 0.0207692 0.020786 0.0208022 0.0208179 0.0208329 0.0208473 0.0208609 0.0208738 0.0208859 0.0208971 0.0209075 0.0209169 0.0209255 0.020933 0.0209395 0.0209449 0.0209492 0.0209524 0.0209544 0.0209552 0.0209548 0.0209531 0.0209501 0.0209458 0.0209402 0.0209332 0.0209249 0.0209153 0.0209042 0.0208918 0.0208781 0.020863 0.0208466 0.020829 0.02081 0.0207899 0.0207686 0.0207462 0.0207228 0.0206983 0.020673 0.0206469 0.02062 0.0205925 0.0205643 0.0205357 0.0205066 0.0204771 0.0204473 0.0204172 0.0203869 0.0203563 0.0203256 0.0202945 0.0202633 0.0202317 0.0201998 0.0201675 0.0201346 0.0201011 0.0200669 0.0200318 0.0199956 0.0199582 0.0199194 0.0198791 0.019837 0.0197928 0.0197462 0.0196967 0.0196437 0.0195866 0.0195249 0.0194581 0.0193853 0.019306 0.0192193 0.0191244 0.0190205 0.0189065 0.0187815 0.0186444 0.0184942 0.01833 0.0181514 0.017959 0.0177548 0.0175439 0.0173325 0.0171246 0.0169203 0.0167152 0.0164918 0.016232 0.0159131 0.0155343 0.0150991 0.0146097 0.0140669 0.0134683 0.0128193 0.0121234 0.0113912 0.0106242 0.00981954 0.00897011 0.00805142 0.0070512 0.00596635 0.0048018 0.00356081 0.00224379 0.00083903 -0.000647844 -0.00223892 -0.00392137 -0.0056999 -0.00765698 -0.00969568 -0.011836 -0.014055 -0.0165403 -0.0191325 -0.0219617 -0.0247547 -0.0281615 -0.0314662 -0.0349907 -0.0414747 0 0 0 0 0 0 0 0 0 0 0 0 0 0 0 0 0 0 0 0 0 0 0 0 0 0 0 0 0 0 0 0 0 0 0 0 0 0 0 0 0 0 0 0 0 0 0 0 0 0 0 0 0 0 0 0 0 0 0 0 0 0 0 0 0 0 0 0 0 0 0 0 0 0 0 0 0 0 0 0 0 0 0 0 0 0 0 0 0 0 0 0 0 0 0 0 0 0 0 0 0 0 0 0 0 0 0 0 0 0 0 0 0 0 0 0 0 0 0 0 0 0 0 0 0 0 0 0 0 0 0 0 0 0 0 0 0 0 0 0 0 0 0 0 0 0 0 0 0 0 0 0 0 0 0 0 0 0 0 0 0 0 0 0 0 0 0 0 0 0 0 0 0 0 0 0 0 0 0 0 0 0 0 0 0 0 0 0 0 0 0 0 0 0 0 0 0 0 0 0 0 0 0 0 0 0 0 0 0 0 0 0 0 0 0 0 0 0 0 0 0 0 0 0 0 0 0 0 0 0 0 0 0 0 0 0 0 0 0 0 0 0 0 0 0 0 0 0 0 0 0 0 0 0 0 0 0 0 0 0 0 0 0 0 0 0 -0.0352001 -0.0296271 -0.0213104 -0.011629 -2.38524e-18 