# vtk DataFile Version 2.0
iteration 1296
ASCII

DATASET STRUCTURED_POINTS
DIMENSIONS 621 64 1
ORIGIN 0 0 0
SPACING 0.00161031 0.00161031 0.00161031

POINT_DATA 39744
SCALARS P float 1
LOOKUP_TABLE default
0 0 0 0 0 0 0 0 0 0 0 0 0 0 0 0 0 0 0 0 0 0 0 0 0 0 0 0 0 0 0 0 0 0 0 0 0 0 0 0 0 0 0 0 0 0 0 0 0 0 0 0 0 0 0 0 0 0 0 0 0 0 0 0 0 0 0 0 0 0 0 0 0 0 0 0 0 0 0 0 0 0 0 0 0 0 0 0 0 0 0 0 0 0 0 0 0 0 0 0 0 0 0 0 0 0 0 0 0 0 0 0 0 0 0 0 0 0 0 0 0 0 0 0 0 0 0 0 0 0 0 0 0 0 0 0 0 0 0 0 0 0 0 0 0 0 0 0 0 0 0 0 0 0 0 0 0 0 0 0 0 0 0 0 0 0 0 0 0 0 0 0 0 0 0 0 0 0 0 0 0 0 0 0 0 0 0 0 0 0 0 0 0 0 0 0 0 0 0 0 0 0 0 0 0 0 0 0 0 0 0 0 0 0 0 0 0 0 0 0 0 0 0 0 0 0 0 0 0 0 0 0 0 0 0 0 0 0 0 0 0 0 0 0 0 0 0 0 0 0 0 0 0 0 0 0 0 0 0 0 0 0 0 0 0 0 0 0 0 0 0 0 0 0 0 0 0 0 0 0 0 0 0 0 0 0 0 0 0 0 0 0 0 0 0 0 0 0 0 0 0 0 0 0 0 0 0 0 0 0 0 0 0 0 0 0 0 0 0 0 0 0 0 0 0 0 0 0 0 0 0 0 0 0 0 0 0 0 0 0 0 0 0 0 0 0 0 0 0 0 0 0 0 0 0 0 0 0 0 0 0 0 0 0 0 0 0 0 0 0 0 0 0 0 0 0 0 0 0 0 0 0 0 0 0 0 0 0 0 0 0 0 0 0 0 0 0 0 0 0 0 0 0 0 0 0 0 0 0 0 0 0 0 0 0 0 0 0 0 0 0 0 0 0 0 0 0 0 0 0 0 0 0 0 0 0 0 0 0 0 0 0 0 0 0 0 0 0 0 0 0 0 0 0 0 0 0 0 0 0 0 0 0 0 0 0 0 0 0 0 0 0 0 0 0 0 0 0 0 0 0 0 0 0 0 0 0 0 0 0 0 0 0 0 0 0 0 0 0 0 0 0 0 0 0 0 0 0 0 0 0 0 0 0 0 0 0 0 0 0 0 0 0 0 0 0 0 0 0 0 0 0 0 0 0 0 0 0 0 0 0 0 0 0 0 0 0 0 0 0 0 0 0 0 0 0 0 0 0 0 0 0 0 0 0 0 0 0 0 0 0 0 0 0 0 0 0 0 0 0 0 0 0 0 0 0 0 0 0 0 0 0 0 0 0 0 0 0 0 0 0 0 0 0 0 0 0 0 0 0 0 0 0 0 0 0 0 0 0 0 0 
0.02 0.02 0.02 0.02 0.02 0.02 0.02 0.02 0.02 0.02 0.02 0.02 0.02 0.02 0.02 0.02 0.02 0.02 0.02 0.02 0.02 0.02 0.02 0.02 0.02 0.02 0.02 0.02 0.02 0.02 0.02 0.02 0.02 0.02 0.02 0.02 0.02 0.02 0.02 0.02 0.02 0.02 0.02 0.02 0.02 0.02 0.02 0.02 0.02 0.02 0.02 0.02 0.02 0.02 0.02 0.02 0.02 0.02 0.02 0.02 0.02 0.02 0.02 0.02 0.02 0.02 0.02 0.02 0.02 0.02 0.02 0.02 0.02 0.02 0.0200001 0.0200001 0.0200001 0.0200001 0.0200001 0.0200001 0.0200001 0.0200001 0.0200001 0.0200001 0.0200001 0.0200001 0.0200002 0.0200002 0.0200002 0.0200002 0.0200002 0.0200002 0.0200002 0.0200003 0.0200003 0.0200003 0.0200003 0.0200003 0.0200004 0.0200004 0.0200004 0.0200004 0.0200004 0.0200005 0.0200005 0.0200005 0.0200005 0.0200005 0.0200005 0.0200005 0.0200005 0.0200005 0.0200005 0.0200005 0.0200005 0.0200004 0.0200004 0.0200003 0.0200003 0.0200002 0.0200001 0.0199999 0.0199997 0.0199996 0.0199993 0.0199991 0.0199987 0.0199984 0.019998 0.0199975 0.0199969 0.0199963 0.0199956 0.0199948 0.0199939 0.0199929 0.0199918 0.0199906 0.0199892 0.0199876 0.0199859 0.019984 0.019982 0.0199797 0.0199772 0.0199745 0.0199715 0.0199683 0.0199648 0.019961 0.0199569 0.0199525 0.0199478 0.0199428 0.0199374 0.0199317 0.0199257 0.0199193 0.0199126 0.0199055 0.0198981 0.0198903 0.0198822 0.0198738 0.0198652 0.0198562 0.019847 0.0198376 0.019828 0.0198182 0.0198084 0.0197984 0.0197885 0.0197785 0.0197685 0.0197587 0.019749 0.0197394 0.01973 0.0197209 0.0197121 0.0197036 0.0196955 0.0196878 0.0196806 0.0196739 0.0196677 0.0196622 0.0196573 0.0196531 0.0196496 0.0196468 0.0196449 0.0196437 0.0196434 0.019644 0.0196454 0.0196478 0.0196511 0.0196553 0.0196605 0.0196667 0.0196739 0.0196822 0.0196914 0.0197017 0.0197131 0.0197255 0.0197391 0.0197538 0.0197696 0.0197865 0.0198046 0.0198239 0.0198444 0.0198661 0.0198891 0.0199133 0.0199387 0.0199654 0.0199934 0.0200227 0.0200532 0.020085 0.020118 0.0201521 0.0201875 0.0202239 0.0202614 0.0202998 0.0203391 0.0203791 0.0204199 0.0204611 0.0205028 0.0205447 0.0205866 0.0206285 0.02067 0.0207111 0.0207515 0.0207909 0.0208292 0.0208661 0.0209014 0.0209349 0.0209663 0.0209954 0.021022 0.0210457 0.0210665 0.0210841 0.0210983 0.021109 0.0211159 0.0211189 0.0211179 0.0211127 0.0211034 0.0210898 0.021072 0.02105 0.0210237 0.0209934 0.020959 0.0209207 0.0208786 0.0208328 0.0207834 0.0207305 0.0206739 0.0206136 0.0205495 0.0204814 0.020409 0.0203319 0.0202498 0.0201622 0.0200687 0.0199686 0.0198613 0.0197462 0.0196226 0.0194895 0.0193461 0.0191915 0.0190246 0.0188442 0.018649 0.0184377 0.0182087 0.0179604 0.0176921 0.0173998 0.0170845 0.0167555 0.0163961 0.0161068 0.016086 0.018569 0 0 0 0 0 0 0 0 0 0 0 0 0 0 0 0 0 0 0 0 0 0 0 0 0 0 0 0 0 0 0 0 0 0 0 0 0 0 0 0 0 0 0 0 0 0 0 0 0 0 0 0 0 0 0 0 0 0 0 0 0 0 0 0 0 0 0 0 0 0 0 0 0 0 0 0 0 0 0 0 0 0 0 0 0 0 0 0 0 0 0 0 0 0 0 0 0 0 0 0 0 0 0 0 0 0 0 0 0 0 0 0 0 0 0 0 0 0 0 0 0 0 0 0 0 0 0 0 0 0 0 0 0 0 0 0 0 0 0 0 0 0 0 0 0 0 0 0 0 0 0 0 0 0 0 0 0 0 0 0 0 0 0 0 0 0 0 0 0 0 0 0 0 0 0 0 0 0 0 0 0 0 0 0 0 0 0 0 0 0 0 0 0 0 0 0 0 0 0 0 0 0 0 0 0 0 0 0 0 0 0 0 0 0 0 0 0 0 0 0 0 0 0 0 0 0 0 0 0 0 0 0 0 0 0 0 0 0 0 0 0 0 0 0 0 0 0 0 0 0 0 0 0 0 0 0 0 0 0 0 0 0 0 0 0 0 0 0 0 0 0 0 0 0 0 0 0 0 0 0 0 0 0 0 0 0 0 0 0 0 0 0 0 0 0 0 0 0 0 0 0 0 0 0 0 0 0 0 0 0 0 0 0 0 0 0 0 0 0 0 0 
0.02 0.02 0.02 0.02 0.02 0.02 0.02 0.02 0.02 0.02 0.02 0.02 0.02 0.02 0.02 0.02 0.02 0.02 0.02 0.02 0.02 0.02 0.02 0.02 0.02 0.02 0.02 0.02 0.02 0.02 0.02 0.02 0.02 0.02 0.02 0.02 0.02 0.02 0.02 0.02 0.02 0.02 0.02 0.02 0.02 0.02 0.02 0.02 0.02 0.02 0.02 0.02 0.02 0.02 0.02 0.02 0.02 0.02 0.02 0.02 0.02 0.02 0.02 0.02 0.02 0.02 0.02 0.02 0.02 0.02 0.02 0.02 0.02 0.02 0.02 0.0200001 0.0200001 0.0200001 0.0200001 0.0200001 0.0200001 0.0200001 0.0200001 0.0200001 0.0200001 0.0200001 0.0200001 0.0200002 0.0200002 0.0200002 0.0200002 0.0200002 0.0200002 0.0200002 0.0200003 0.0200003 0.0200003 0.0200003 0.0200003 0.0200004 0.0200004 0.0200004 0.0200004 0.0200004 0.0200004 0.0200005 0.0200005 0.0200005 0.0200005 0.0200005 0.0200005 0.0200005 0.0200005 0.0200005 0.0200004 0.0200004 0.0200004 0.0200003 0.0200002 0.0200001 0.02 0.0199999 0.0199997 0.0199995 0.0199993 0.019999 0.0199987 0.0199983 0.0199979 0.0199974 0.0199969 0.0199962 0.0199955 0.0199947 0.0199939 0.0199929 0.0199917 0.0199905 0.0199891 0.0199876 0.0199859 0.019984 0.0199819 0.0199796 0.0199771 0.0199744 0.0199715 0.0199683 0.0199648 0.019961 0.0199569 0.0199526 0.0199479 0.0199429 0.0199375 0.0199319 0.0199258 0.0199195 0.0199128 0.0199057 0.0198983 0.0198906 0.0198825 0.0198742 0.0198655 0.0198566 0.0198474 0.019838 0.0198284 0.0198187 0.0198088 0.0197989 0.019789 0.019779 0.0197691 0.0197592 0.0197495 0.0197399 0.0197306 0.0197214 0.0197126 0.0197041 0.019696 0.0196882 0.019681 0.0196743 0.0196681 0.0196625 0.0196576 0.0196533 0.0196497 0.0196469 0.0196449 0.0196436 0.0196432 0.0196437 0.019645 0.0196473 0.0196505 0.0196546 0.0196597 0.0196658 0.0196728 0.0196809 0.01969 0.0197002 0.0197114 0.0197237 0.019737 0.0197515 0.0197671 0.0197839 0.0198018 0.0198208 0.0198411 0.0198626 0.0198853 0.0199093 0.0199345 0.0199609 0.0199886 0.0200176 0.0200478 0.0200793 0.0201119 0.0201458 0.0201808 0.0202169 0.020254 0.020292 0.020331 0.0203706 0.020411 0.0204519 0.0204931 0.0205346 0.0205762 0.0206177 0.0206589 0.0206996 0.0207396 0.0207787 0.0208166 0.0208532 0.0208882 0.0209214 0.0209525 0.0209813 0.0210076 0.0210311 0.0210517 0.0210691 0.0210832 0.0210937 0.0211004 0.0211034 0.0211023 0.0210971 0.0210878 0.0210743 0.0210566 0.0210346 0.0210085 0.0209783 0.020944 0.0209059 0.020864 0.0208185 0.0207693 0.0207165 0.0206601 0.0206001 0.0205363 0.0204684 0.0203963 0.0203195 0.0202378 0.0201506 0.0200574 0.0199578 0.0198511 0.0197365 0.0196135 0.019481 0.0193384 0.0191845 0.0190183 0.0188386 0.0186442 0.0184336 0.0182053 0.0179577 0.0176906 0.0174002 0.0170885 0.0167708 0.0164705 0.0161594 0.0161117 0.0164166 0.0160909 0.0152645 0.0146528 0.0140441 0.0134621 0.0128489 0.012189 0.011447 0.0105825 0.00959706 0.00866169 0.00773875 0.00708682 0.00742707 0 0 0 0 0 0 0 0 0 0 0 0 0 0 0 0 0 0 0 0 0 0 0 0 0 0 0 0 0 0 0 0 0 0 0 0 0 0 0 0 0 0 0 0 0 0 0 0 0 0 0 0 0 0 0 0 0 0 0 0 0 0 0 0 0 0 0 0 0 0 0 0 0 0 0 0 0 0 0 0 0 0 0 0 0 0 0 0 0 0 0 0 0 0 0 0 0 0 0 0 0 0 0 0 0 0 0 0 0 0 0 0 0 0 0 0 0 0 0 0 0 0 0 0 0 0 0 0 0 0 0 0 0 0 0 0 0 0 0 0 0 0 0 0 0 0 0 0 0 0 0 0 0 0 0 0 0 0 0 0 0 0 0 0 0 0 0 0 0 0 0 0 0 0 0 0 0 0 0 0 0 0 0 0 0 0 0 0 0 0 0 0 0 0 0 0 0 0 0 0 0 0 0 0 0 0 0 0 0 0 0 0 0 0 0 0 0 0 0 0 0 0 0 0 0 0 0 0 0 0 0 0 0 0 0 0 0 0 0 0 0 0 0 0 0 0 0 0 0 0 0 0 0 0 0 0 0 0 0 0 0 0 0 0 0 0 0 0 0 0 0 0 0 0 0 0 0 0 0 0 0 0 0 0 0 0 0 0 0 0 0 0 0 0 0 0 0 0 0 0 0 0 0 0 0 0 0 
0.02 0.02 0.02 0.02 0.02 0.02 0.02 0.02 0.02 0.02 0.02 0.02 0.02 0.02 0.02 0.02 0.02 0.02 0.02 0.02 0.02 0.02 0.02 0.02 0.02 0.02 0.02 0.02 0.02 0.02 0.02 0.02 0.02 0.02 0.02 0.02 0.02 0.02 0.02 0.02 0.02 0.02 0.02 0.02 0.02 0.02 0.02 0.02 0.02 0.02 0.02 0.02 0.02 0.02 0.02 0.02 0.02 0.02 0.02 0.02 0.02 0.02 0.02 0.02 0.02 0.02 0.02 0.02 0.02 0.02 0.02 0.02 0.02 0.02 0.02 0.0200001 0.0200001 0.0200001 0.0200001 0.0200001 0.0200001 0.0200001 0.0200001 0.0200001 0.0200001 0.0200001 0.0200001 0.0200002 0.0200002 0.0200002 0.0200002 0.0200002 0.0200002 0.0200002 0.0200003 0.0200003 0.0200003 0.0200003 0.0200003 0.0200003 0.0200004 0.0200004 0.0200004 0.0200004 0.0200004 0.0200004 0.0200004 0.0200004 0.0200005 0.0200005 0.0200005 0.0200004 0.0200004 0.0200004 0.0200004 0.0200003 0.0200003 0.0200002 0.0200001 0.02 0.0199999 0.0199997 0.0199996 0.0199994 0.0199991 0.0199989 0.0199985 0.0199982 0.0199977 0.0199973 0.0199967 0.0199961 0.0199954 0.0199946 0.0199937 0.0199927 0.0199915 0.0199903 0.0199889 0.0199874 0.0199857 0.0199838 0.0199817 0.0199794 0.019977 0.0199743 0.0199713 0.0199681 0.0199646 0.0199609 0.0199568 0.0199525 0.0199478 0.0199428 0.0199375 0.0199318 0.0199258 0.0199195 0.0199128 0.0199058 0.0198984 0.0198907 0.0198827 0.0198743 0.0198657 0.0198568 0.0198477 0.0198383 0.0198288 0.019819 0.0198092 0.0197993 0.0197894 0.0197794 0.0197695 0.0197597 0.01975 0.0197404 0.0197311 0.019722 0.0197131 0.0197046 0.0196965 0.0196888 0.0196815 0.0196748 0.0196686 0.0196629 0.019658 0.0196536 0.01965 0.0196472 0.0196451 0.0196438 0.0196433 0.0196437 0.0196449 0.0196471 0.0196501 0.0196541 0.0196591 0.019665 0.0196719 0.0196799 0.0196888 0.0196988 0.0197098 0.0197219 0.0197351 0.0197493 0.0197647 0.0197812 0.0197989 0.0198177 0.0198377 0.0198588 0.0198812 0.0199049 0.0199297 0.0199558 0.0199831 0.0200117 0.0200414 0.0200724 0.0201046 0.020138 0.0201725 0.020208 0.0202445 0.020282 0.0203203 0.0203594 0.0203991 0.0204393 0.0204799 0.0205208 0.0205616 0.0206024 0.0206429 0.0206828 0.0207221 0.0207605 0.0207977 0.0208336 0.0208679 0.0209003 0.0209307 0.0209589 0.0209845 0.0210074 0.0210274 0.0210442 0.0210577 0.0210677 0.0210741 0.0210766 0.0210752 0.0210697 0.0210601 0.0210464 0.0210285 0.0210065 0.0209803 0.0209501 0.0209159 0.0208779 0.0208362 0.0207908 0.0207418 0.0206893 0.0206333 0.0205736 0.0205101 0.0204427 0.020371 0.0202947 0.0202135 0.0201268 0.0200343 0.0199353 0.0198293 0.0197155 0.0195932 0.0194616 0.0193197 0.0191667 0.0190014 0.0188225 0.018629 0.0184192 0.0181918 0.0179455 0.0176809 0.0173986 0.0170997 0.0168139 0.0165496 0.0163199 0.0161813 0.0160793 0.0157862 0.0151704 0.0146184 0.0140204 0.0134318 0.0128049 0.0121215 0.0113622 0.0105159 0.00961045 0.0087178 0.00778238 0.00696504 0.00638224 0.0052247 0.00389714 0.00252623 0.001124 -0.000308799 -0.00169974 -0.00318346 0 0 0 0 0 0 0 0 0 0 0 0 0 0 0 0 0 0 0 0 0 0 0 0 0 0 0 0 0 0 0 0 0 0 0 0 0 0 0 0 0 0 0 0 0 0 0 0 0 0 0 0 0 0 0 0 0 0 0 0 0 0 0 0 0 0 0 0 0 0 0 0 0 0 0 0 0 0 0 0 0 0 0 0 0 0 0 0 0 0 0 0 0 0 0 0 0 0 0 0 0 0 0 0 0 0 0 0 0 0 0 0 0 0 0 0 0 0 0 0 0 0 0 0 0 0 0 0 0 0 0 0 0 0 0 0 0 0 0 0 0 0 0 0 0 0 0 0 0 0 0 0 0 0 0 0 0 0 0 0 0 0 0 0 0 0 0 0 0 0 0 0 0 0 0 0 0 0 0 0 0 0 0 0 0 0 0 0 0 0 0 0 0 0 0 0 0 0 0 0 0 0 0 0 0 0 0 0 0 0 0 0 0 0 0 0 0 0 0 0 0 0 0 0 0 0 0 0 0 0 0 0 0 0 0 0 0 0 0 0 0 0 0 0 0 0 0 0 0 0 0 0 0 0 0 0 0 0 0 0 0 0 0 0 0 0 0 0 0 0 0 0 0 0 0 0 0 0 0 0 0 0 0 0 0 0 0 0 0 0 0 0 0 0 0 0 0 0 0 0 
0.02 0.02 0.02 0.02 0.02 0.02 0.02 0.02 0.02 0.02 0.02 0.02 0.02 0.02 0.02 0.02 0.02 0.02 0.02 0.02 0.02 0.02 0.02 0.02 0.02 0.02 0.02 0.02 0.02 0.02 0.02 0.02 0.02 0.02 0.02 0.02 0.02 0.02 0.02 0.02 0.02 0.02 0.02 0.02 0.02 0.02 0.02 0.02 0.02 0.02 0.02 0.02 0.02 0.02 0.02 0.02 0.02 0.02 0.02 0.02 0.02 0.02 0.02 0.02 0.02 0.02 0.02 0.02 0.02 0.02 0.02 0.02 0.02 0.02 0.02 0.0200001 0.0200001 0.0200001 0.0200001 0.0200001 0.0200001 0.0200001 0.0200001 0.0200001 0.0200001 0.0200001 0.0200001 0.0200001 0.0200002 0.0200002 0.0200002 0.0200002 0.0200002 0.0200002 0.0200002 0.0200002 0.0200003 0.0200003 0.0200003 0.0200003 0.0200003 0.0200003 0.0200003 0.0200004 0.0200004 0.0200004 0.0200004 0.0200004 0.0200004 0.0200004 0.0200004 0.0200004 0.0200003 0.0200003 0.0200003 0.0200002 0.0200002 0.0200001 0.02 0.0199999 0.0199998 0.0199996 0.0199994 0.0199992 0.019999 0.0199987 0.0199984 0.019998 0.0199975 0.019997 0.0199965 0.0199959 0.0199951 0.0199943 0.0199934 0.0199924 0.0199913 0.01999 0.0199887 0.0199871 0.0199854 0.0199835 0.0199815 0.0199792 0.0199767 0.019974 0.0199711 0.0199679 0.0199644 0.0199607 0.0199566 0.0199523 0.0199477 0.0199427 0.0199374 0.0199318 0.0199258 0.0199195 0.0199129 0.0199059 0.0198985 0.0198909 0.0198829 0.0198746 0.0198661 0.0198572 0.0198481 0.0198388 0.0198293 0.0198196 0.0198098 0.0197999 0.01979 0.0197801 0.0197703 0.0197605 0.0197508 0.0197412 0.0197319 0.0197228 0.019714 0.0197055 0.0196973 0.0196896 0.0196823 0.0196756 0.0196693 0.0196637 0.0196587 0.0196543 0.0196506 0.0196477 0.0196455 0.0196441 0.0196435 0.0196438 0.0196449 0.0196469 0.0196498 0.0196537 0.0196585 0.0196642 0.019671 0.0196787 0.0196874 0.0196972 0.0197079 0.0197198 0.0197327 0.0197466 0.0197617 0.0197779 0.0197952 0.0198137 0.0198333 0.0198541 0.019876 0.0198992 0.0199236 0.0199492 0.019976 0.020004 0.0200332 0.0200636 0.0200951 0.0201278 0.0201615 0.0201963 0.0202321 0.0202687 0.0203062 0.0203444 0.0203832 0.0204225 0.0204622 0.020502 0.0205419 0.0205817 0.0206211 0.02066 0.0206983 0.0207356 0.0207717 0.0208065 0.0208398 0.0208712 0.0209006 0.0209277 0.0209524 0.0209743 0.0209934 0.0210094 0.021022 0.0210313 0.0210369 0.0210388 0.0210368 0.0210308 0.0210208 0.0210067 0.0209885 0.0209663 0.02094 0.0209097 0.0208756 0.0208376 0.020796 0.0207509 0.0207022 0.02065 0.0205943 0.0205351 0.0204721 0.0204052 0.0203341 0.0202584 0.0201779 0.020092 0.0200003 0.0199022 0.0197971 0.0196843 0.0195631 0.0194326 0.0192918 0.0191399 0.0189758 0.0187981 0.0186057 0.0183972 0.0181714 0.0179276 0.017668 0.0173977 0.0171207 0.0168593 0.0166354 0.0164261 0.0161467 0.0159653 0.0155933 0.0150918 0.0145696 0.0140029 0.0134095 0.0127721 0.012074 0.0113095 0.0104831 0.00962287 0.00877574 0.00790534 0.00698143 0.00615076 0.00503395 0.00381087 0.00248551 0.00112783 -0.000272265 -0.00173687 -0.00333763 -0.00507672 -0.00681126 -0.00868353 -0.0112837 -0.0127374 0 0 0 0 0 0 0 0 0 0 0 0 0 0 0 0 0 0 0 0 0 0 0 0 0 0 0 0 0 0 0 0 0 0 0 0 0 0 0 0 0 0 0 0 0 0 0 0 0 0 0 0 0 0 0 0 0 0 0 0 0 0 0 0 0 0 0 0 0 0 0 0 0 0 0 0 0 0 0 0 0 0 0 0 0 0 0 0 0 0 0 0 0 0 0 0 0 0 0 0 0 0 0 0 0 0 0 0 0 0 0 0 0 0 0 0 0 0 0 0 0 0 0 0 0 0 0 0 0 0 0 0 0 0 0 0 0 0 0 0 0 0 0 0 0 0 0 0 0 0 0 0 0 0 0 0 0 0 0 0 0 0 0 0 0 0 0 0 0 0 0 0 0 0 0 0 0 0 0 0 0 0 0 0 0 0 0 0 0 0 0 0 0 0 0 0 0 0 0 0 0 0 0 0 0 0 0 0 0 0 0 0 0 0 0 0 0 0 0 0 0 0 0 0 0 0 0 0 0 0 0 0 0 0 0 0 0 0 0 0 0 0 0 0 0 0 0 0 0 0 0 0 0 0 0 0 0 0 0 0 0 0 0 0 0 0 0 0 0 0 0 0 0 0 0 0 0 0 0 0 0 0 0 0 0 0 0 0 0 0 0 0 0 0 -9.75782e-19 
0.02 0.02 0.02 0.02 0.02 0.02 0.02 0.02 0.02 0.02 0.02 0.02 0.02 0.02 0.02 0.02 0.02 0.02 0.02 0.02 0.02 0.02 0.02 0.02 0.02 0.02 0.02 0.02 0.02 0.02 0.02 0.02 0.02 0.02 0.02 0.02 0.02 0.02 0.02 0.02 0.02 0.02 0.02 0.02 0.02 0.02 0.02 0.02 0.02 0.02 0.02 0.02 0.02 0.02 0.02 0.02 0.02 0.02 0.02 0.02 0.02 0.02 0.02 0.02 0.02 0.02 0.02 0.02 0.02 0.02 0.02 0.02 0.02 0.02 0.02 0.02 0.0200001 0.0200001 0.0200001 0.0200001 0.0200001 0.0200001 0.0200001 0.0200001 0.0200001 0.0200001 0.0200001 0.0200001 0.0200001 0.0200002 0.0200002 0.0200002 0.0200002 0.0200002 0.0200002 0.0200002 0.0200002 0.0200002 0.0200003 0.0200003 0.0200003 0.0200003 0.0200003 0.0200003 0.0200003 0.0200003 0.0200003 0.0200003 0.0200003 0.0200003 0.0200003 0.0200003 0.0200003 0.0200002 0.0200002 0.0200001 0.0200001 0.02 0.0199999 0.0199998 0.0199996 0.0199994 0.0199993 0.019999 0.0199988 0.0199985 0.0199981 0.0199978 0.0199973 0.0199968 0.0199962 0.0199956 0.0199949 0.0199941 0.0199932 0.0199921 0.019991 0.0199897 0.0199883 0.0199868 0.0199851 0.0199832 0.0199812 0.0199789 0.0199764 0.0199737 0.0199708 0.0199676 0.0199642 0.0199604 0.0199564 0.0199521 0.0199475 0.0199426 0.0199373 0.0199318 0.0199258 0.0199196 0.019913 0.0199061 0.0198988 0.0198912 0.0198833 0.0198751 0.0198666 0.0198578 0.0198488 0.0198395 0.01983 0.0198204 0.0198107 0.0198009 0.019791 0.0197811 0.0197713 0.0197615 0.0197519 0.0197424 0.0197331 0.019724 0.0197152 0.0197067 0.0196986 0.0196908 0.0196836 0.0196768 0.0196705 0.0196648 0.0196597 0.0196553 0.0196515 0.0196485 0.0196462 0.0196447 0.019644 0.0196441 0.0196451 0.0196469 0.0196496 0.0196533 0.0196579 0.0196634 0.0196699 0.0196773 0.0196858 0.0196952 0.0197057 0.0197172 0.0197297 0.0197433 0.019758 0.0197738 0.0197907 0.0198087 0.0198278 0.0198481 0.0198695 0.0198922 0.0199159 0.0199409 0.019967 0.0199943 0.0200228 0.0200524 0.0200831 0.0201149 0.0201478 0.0201816 0.0202164 0.020252 0.0202885 0.0203255 0.0203632 0.0204013 0.0204397 0.0204783 0.0205169 0.0205554 0.0205935 0.0206311 0.0206679 0.0207039 0.0207387 0.0207721 0.020804 0.020834 0.0208621 0.0208879 0.0209113 0.020932 0.0209499 0.0209647 0.0209763 0.0209845 0.0209892 0.0209903 0.0209875 0.0209809 0.0209703 0.0209557 0.0209372 0.0209147 0.0208882 0.0208578 0.0208237 0.0207858 0.0207444 0.0206995 0.0206511 0.0205993 0.0205441 0.0204854 0.020423 0.0203567 0.0202863 0.0202115 0.0201319 0.0200469 0.0199563 0.0198593 0.0197553 0.0196438 0.0195238 0.0193947 0.0192554 0.0191049 0.0189422 0.018766 0.0185752 0.0183686 0.0181456 0.0179064 0.0176551 0.0174 0.0171486 0.0169063 0.016692 0.0164864 0.0162544 0.0159172 0.0155047 0.0150392 0.0145308 0.01398 0.0133841 0.0127393 0.0120358 0.0112779 0.0104759 0.00964511 0.0088087 0.00796087 0.00707138 0.00605256 0.00492299 0.00372253 0.00243826 0.00109495 -0.000317016 -0.00179544 -0.0033713 -0.00504486 -0.00676174 -0.00860081 -0.0107464 -0.0128629 -0.0150253 -0.0171967 -0.0197127 -0.0239703 0 0 0 0 0 0 0 0 0 0 0 0 0 0 0 0 0 0 0 0 0 0 0 0 0 0 0 0 0 0 0 0 0 0 0 0 0 0 0 0 0 0 0 0 0 0 0 0 0 0 0 0 0 0 0 0 0 0 0 0 0 0 0 0 0 0 0 0 0 0 0 0 0 0 0 0 0 0 0 0 0 0 0 0 0 0 0 0 0 0 0 0 0 0 0 0 0 0 0 0 0 0 0 0 0 0 0 0 0 0 0 0 0 0 0 0 0 0 0 0 0 0 0 0 0 0 0 0 0 0 0 0 0 0 0 0 0 0 0 0 0 0 0 0 0 0 0 0 0 0 0 0 0 0 0 0 0 0 0 0 0 0 0 0 0 0 0 0 0 0 0 0 0 0 0 0 0 0 0 0 0 0 0 0 0 0 0 0 0 0 0 0 0 0 0 0 0 0 0 0 0 0 0 0 0 0 0 0 0 0 0 0 0 0 0 0 0 0 0 0 0 0 0 0 0 0 0 0 0 0 0 0 0 0 0 0 0 0 0 0 0 0 0 0 0 0 0 0 0 0 0 0 0 0 0 0 0 0 0 0 0 0 0 0 0 0 0 0 0 0 0 0 0 0 0 0 0 0 0 0 0 0 0 0 0 0 0 0 0 -0.00495965 -4.33681e-19 
0.02 0.02 0.02 0.02 0.02 0.02 0.02 0.02 0.02 0.02 0.02 0.02 0.02 0.02 0.02 0.02 0.02 0.02 0.02 0.02 0.02 0.02 0.02 0.02 0.02 0.02 0.02 0.02 0.02 0.02 0.02 0.02 0.02 0.02 0.02 0.02 0.02 0.02 0.02 0.02 0.02 0.02 0.02 0.02 0.02 0.02 0.02 0.02 0.02 0.02 0.02 0.02 0.02 0.02 0.02 0.02 0.02 0.02 0.02 0.02 0.02 0.02 0.02 0.02 0.02 0.02 0.02 0.02 0.02 0.02 0.02 0.02 0.02 0.02 0.02 0.02 0.02 0.0200001 0.0200001 0.0200001 0.0200001 0.0200001 0.0200001 0.0200001 0.0200001 0.0200001 0.0200001 0.0200001 0.0200001 0.0200001 0.0200001 0.0200002 0.0200002 0.0200002 0.0200002 0.0200002 0.0200002 0.0200002 0.0200002 0.0200002 0.0200002 0.0200002 0.0200003 0.0200003 0.0200003 0.0200003 0.0200003 0.0200003 0.0200002 0.0200002 0.0200002 0.0200002 0.0200002 0.0200001 0.0200001 0.02 0.0199999 0.0199998 0.0199997 0.0199996 0.0199994 0.0199993 0.0199991 0.0199988 0.0199986 0.0199983 0.0199979 0.0199975 0.0199971 0.0199965 0.019996 0.0199953 0.0199946 0.0199938 0.0199928 0.0199918 0.0199907 0.0199894 0.019988 0.0199865 0.0199848 0.0199829 0.0199808 0.0199786 0.0199761 0.0199734 0.0199705 0.0199673 0.0199639 0.0199602 0.0199562 0.019952 0.0199474 0.0199425 0.0199373 0.0199318 0.0199259 0.0199197 0.0199132 0.0199063 0.0198992 0.0198917 0.0198838 0.0198757 0.0198673 0.0198586 0.0198497 0.0198405 0.0198311 0.0198216 0.0198119 0.0198022 0.0197924 0.0197825 0.0197728 0.019763 0.0197534 0.019744 0.0197347 0.0197256 0.0197169 0.0197084 0.0197003 0.0196925 0.0196852 0.0196784 0.0196721 0.0196664 0.0196612 0.0196567 0.0196528 0.0196497 0.0196473 0.0196456 0.0196447 0.0196447 0.0196455 0.0196471 0.0196496 0.019653 0.0196573 0.0196625 0.0196687 0.0196758 0.0196839 0.019693 0.0197031 0.0197142 0.0197263 0.0197394 0.0197536 0.0197689 0.0197853 0.0198027 0.0198213 0.019841 0.0198617 0.0198837 0.0199067 0.0199309 0.0199563 0.0199827 0.0200103 0.020039 0.0200687 0.0200995 0.0201312 0.020164 0.0201975 0.0202319 0.020267 0.0203028 0.0203391 0.0203757 0.0204127 0.0204497 0.0204868 0.0205237 0.0205602 0.0205961 0.0206313 0.0206656 0.0206987 0.0207305 0.0207607 0.0207891 0.0208155 0.0208398 0.0208616 0.0208808 0.0208972 0.0209107 0.020921 0.020928 0.0209316 0.0209316 0.0209279 0.0209205 0.0209093 0.0208942 0.0208752 0.0208524 0.0208257 0.0207952 0.0207611 0.0207234 0.0206822 0.0206375 0.0205895 0.0205382 0.0204835 0.0204254 0.0203637 0.0202982 0.0202287 0.0201548 0.0200761 0.0199923 0.0199029 0.0198072 0.0197046 0.0195945 0.0194761 0.0193486 0.019211 0.0190622 0.0189013 0.018727 0.0185383 0.0183345 0.0181159 0.0178839 0.0176433 0.0174035 0.0171729 0.0169497 0.0167252 0.0164933 0.0162112 0.0158674 0.0154618 0.0150048 0.0145 0.0139519 0.0133555 0.012708 0.0120079 0.0112616 0.010481 0.00967281 0.00883466 0.00796508 0.00702455 0.00599443 0.00486864 0.00366528 0.00238897 0.00105113 -0.000375082 -0.00186407 -0.00345034 -0.00509698 -0.00682817 -0.00871288 -0.0107157 -0.0127502 -0.0148525 -0.0169985 -0.0185652 -0.0220932 -0.0245822 -0.0268701 -0.0297201 -0.0356908 0 0 0 0 0 0 0 0 0 0 0 0 0 0 0 0 0 0 0 0 0 0 0 0 0 0 0 0 0 0 0 0 0 0 0 0 0 0 0 0 0 0 0 0 0 0 0 0 0 0 0 0 0 0 0 0 0 0 0 0 0 0 0 0 0 0 0 0 0 0 0 0 0 0 0 0 0 0 0 0 0 0 0 0 0 0 0 0 0 0 0 0 0 0 0 0 0 0 0 0 0 0 0 0 0 0 0 0 0 0 0 0 0 0 0 0 0 0 0 0 0 0 0 0 0 0 0 0 0 0 0 0 0 0 0 0 0 0 0 0 0 0 0 0 0 0 0 0 0 0 0 0 0 0 0 0 0 0 0 0 0 0 0 0 0 0 0 0 0 0 0 0 0 0 0 0 0 0 0 0 0 0 0 0 0 0 0 0 0 0 0 0 0 0 0 0 0 0 0 0 0 0 0 0 0 0 0 0 0 0 0 0 0 0 0 0 0 0 0 0 0 0 0 0 0 0 0 0 0 0 0 0 0 0 0 0 0 0 0 0 0 0 0 0 0 0 0 0 0 0 0 0 0 0 0 0 0 0 0 0 0 0 0 0 0 0 0 0 0 0 0 0 0 0 0 0 0 0 0 0 0 0 0 0 -0.0177297 -0.0090229 -2.1684e-19 
0.02 0.02 0.02 0.02 0.02 0.02 0.02 0.02 0.02 0.02 0.02 0.02 0.02 0.02 0.02 0.02 0.02 0.02 0.02 0.02 0.02 0.02 0.02 0.02 0.02 0.02 0.02 0.02 0.02 0.02 0.02 0.02 0.02 0.02 0.02 0.02 0.02 0.02 0.02 0.02 0.02 0.02 0.02 0.02 0.02 0.02 0.02 0.02 0.02 0.02 0.02 0.02 0.02 0.02 0.02 0.02 0.02 0.02 0.02 0.02 0.02 0.02 0.02 0.02 0.02 0.02 0.02 0.02 0.02 0.02 0.02 0.02 0.02 0.02 0.02 0.02 0.02 0.02 0.0200001 0.0200001 0.0200001 0.0200001 0.0200001 0.0200001 0.0200001 0.0200001 0.0200001 0.0200001 0.0200001 0.0200001 0.0200001 0.0200001 0.0200001 0.0200002 0.0200002 0.0200002 0.0200002 0.0200002 0.0200002 0.0200002 0.0200002 0.0200002 0.0200002 0.0200002 0.0200002 0.0200002 0.0200002 0.0200002 0.0200002 0.0200001 0.0200001 0.0200001 0.02 0.02 0.0199999 0.0199999 0.0199998 0.0199997 0.0199996 0.0199994 0.0199993 0.0199991 0.0199989 0.0199986 0.0199983 0.019998 0.0199977 0.0199972 0.0199968 0.0199963 0.0199957 0.019995 0.0199943 0.0199934 0.0199925 0.0199915 0.0199903 0.0199891 0.0199877 0.0199861 0.0199844 0.0199825 0.0199805 0.0199782 0.0199758 0.0199731 0.0199702 0.0199671 0.0199637 0.01996 0.019956 0.0199518 0.0199473 0.0199424 0.0199373 0.0199318 0.019926 0.0199199 0.0199135 0.0199067 0.0198996 0.0198922 0.0198845 0.0198765 0.0198682 0.0198596 0.0198508 0.0198417 0.0198325 0.019823 0.0198135 0.0198038 0.0197941 0.0197843 0.0197746 0.019765 0.0197554 0.019746 0.0197368 0.0197278 0.019719 0.0197105 0.0197024 0.0196947 0.0196874 0.0196805 0.0196742 0.0196684 0.0196632 0.0196586 0.0196546 0.0196513 0.0196488 0.0196469 0.0196459 0.0196456 0.0196461 0.0196475 0.0196497 0.0196528 0.0196568 0.0196617 0.0196675 0.0196742 0.0196819 0.0196906 0.0197002 0.0197108 0.0197224 0.019735 0.0197486 0.0197633 0.0197791 0.0197958 0.0198137 0.0198327 0.0198527 0.0198738 0.019896 0.0199193 0.0199437 0.0199692 0.0199957 0.0200233 0.0200519 0.0200815 0.020112 0.0201434 0.0201756 0.0202085 0.0202421 0.0202763 0.020311 0.020346 0.0203812 0.0204165 0.0204517 0.0204867 0.0205214 0.0205554 0.0205887 0.020621 0.0206521 0.020682 0.0207102 0.0207367 0.0207612 0.0207836 0.0208036 0.0208211 0.0208358 0.0208477 0.0208565 0.0208622 0.0208645 0.0208634 0.0208587 0.0208504 0.0208385 0.0208228 0.0208034 0.0207802 0.0207534 0.0207229 0.0206888 0.0206513 0.0206103 0.0205661 0.0205185 0.0204677 0.0204137 0.0203562 0.0202953 0.0202306 0.020162 0.0200892 0.0200117 0.0199291 0.019841 0.0197467 0.0196457 0.0195373 0.0194207 0.019295 0.0191593 0.0190125 0.0188537 0.0186818 0.0184959 0.018296 0.0180832 0.0178603 0.0176318 0.0174048 0.017185 0.0169693 0.0167401 0.0164803 0.0161818 0.01583 0.0154242 0.0149696 0.0144688 0.0139218 0.013326 0.0126809 0.0119893 0.0112568 0.0104911 0.00969352 0.00885477 0.00795624 0.00699446 0.00595017 0.0048224 0.0036177 0.00234171 0.000994242 -0.00042657 -0.00193962 -0.00352579 -0.00519015 -0.00693095 -0.00883432 -0.0107733 -0.0128029 -0.0149031 -0.0170874 -0.0194905 -0.0218457 -0.0241697 -0.0260308 -0.0288717 -0.0325598 -0.0352822 -0.0372542 -0.040042 -0.0472138 0 0 0 0 0 0 0 0 0 0 0 0 0 0 0 0 0 0 0 0 0 0 0 0 0 0 0 0 0 0 0 0 0 0 0 0 0 0 0 0 0 0 0 0 0 0 0 0 0 0 0 0 0 0 0 0 0 0 0 0 0 0 0 0 0 0 0 0 0 0 0 0 0 0 0 0 0 0 0 0 0 0 0 0 0 0 0 0 0 0 0 0 0 0 0 0 0 0 0 0 0 0 0 0 0 0 0 0 0 0 0 0 0 0 0 0 0 0 0 0 0 0 0 0 0 0 0 0 0 0 0 0 0 0 0 0 0 0 0 0 0 0 0 0 0 0 0 0 0 0 0 0 0 0 0 0 0 0 0 0 0 0 0 0 0 0 0 0 0 0 0 0 0 0 0 0 0 0 0 0 0 0 0 0 0 0 0 0 0 0 0 0 0 0 0 0 0 0 0 0 0 0 0 0 0 0 0 0 0 0 0 0 0 0 0 0 0 0 0 0 0 0 0 0 0 0 0 0 0 0 0 0 0 0 0 0 0 0 0 0 0 0 0 0 0 0 0 0 0 0 0 0 0 0 0 0 0 0 0 0 0 0 0 0 0 0 0 0 0 0 0 0 0 0 0 0 0 0 -0.0369784 -0.0309197 -0.0222051 -0.012117 -4.33681e-19 
0.02 0.02 0.02 0.02 0.02 0.02 0.02 0.02 0.02 0.02 0.02 0.02 0.02 0.02 0.02 0.02 0.02 0.02 0.02 0.02 0.02 0.02 0.02 0.02 0.02 0.02 0.02 0.02 0.02 0.02 0.02 0.02 0.02 0.02 0.02 0.02 0.02 0.02 0.02 0.02 0.02 0.02 0.02 0.02 0.02 0.02 0.02 0.02 0.02 0.02 0.02 0.02 0.02 0.02 0.02 0.02 0.02 0.02 0.02 0.02 0.02 0.02 0.02 0.02 0.02 0.02 0.02 0.02 0.02 0.02 0.02 0.02 0.02 0.02 0.02 0.02 0.02 0.02 0.02 0.02 0.0200001 0.0200001 0.0200001 0.0200001 0.0200001 0.0200001 0.0200001 0.0200001 0.0200001 0.0200001 0.0200001 0.0200001 0.0200001 0.0200001 0.0200001 0.0200001 0.0200001 0.0200001 0.0200001 0.0200001 0.0200001 0.0200001 0.0200001 0.0200001 0.0200001 0.0200001 0.0200001 0.0200001 0.0200001 0.02 0.02 0.02 0.0199999 0.0199999 0.0199998 0.0199997 0.0199996 0.0199995 0.0199994 0.0199992 0.0199991 0.0199989 0.0199986 0.0199984 0.0199981 0.0199978 0.0199974 0.019997 0.0199965 0.019996 0.0199954 0.0199947 0.0199939 0.0199931 0.0199922 0.0199911 0.01999 0.0199887 0.0199873 0.0199858 0.0199841 0.0199822 0.0199801 0.0199779 0.0199755 0.0199728 0.0199699 0.0199668 0.0199634 0.0199598 0.0199559 0.0199517 0.0199472 0.0199425 0.0199374 0.019932 0.0199263 0.0199202 0.0199139 0.0199072 0.0199002 0.0198929 0.0198853 0.0198775 0.0198693 0.0198609 0.0198522 0.0198433 0.0198341 0.0198248 0.0198154 0.0198058 0.0197962 0.0197866 0.0197769 0.0197674 0.0197579 0.0197485 0.0197394 0.0197304 0.0197217 0.0197132 0.0197051 0.0196974 0.0196901 0.0196832 0.0196768 0.019671 0.0196657 0.0196609 0.0196569 0.0196534 0.0196507 0.0196487 0.0196474 0.0196469 0.0196472 0.0196483 0.0196502 0.0196529 0.0196565 0.019661 0.0196664 0.0196727 0.0196799 0.019688 0.0196971 0.0197071 0.0197181 0.0197301 0.0197431 0.0197571 0.0197721 0.0197881 0.0198052 0.0198233 0.0198424 0.0198626 0.0198839 0.0199062 0.0199295 0.0199539 0.0199792 0.0200056 0.0200329 0.0200611 0.0200901 0.02012 0.0201507 0.020182 0.0202139 0.0202463 0.0202791 0.0203122 0.0203455 0.0203788 0.020412 0.0204449 0.0204774 0.0205092 0.0205403 0.0205704 0.0205993 0.0206269 0.0206529 0.0206772 0.0206996 0.0207199 0.0207378 0.0207534 0.0207663 0.0207764 0.0207836 0.0207877 0.0207886 0.0207863 0.0207806 0.0207715 0.0207588 0.0207425 0.0207227 0.0206993 0.0206724 0.0206419 0.020608 0.0205707 0.0205301 0.0204863 0.0204393 0.0203891 0.0203357 0.020279 0.0202189 0.0201552 0.0200876 0.0200159 0.0199396 0.0198584 0.0197717 0.019679 0.0195797 0.019473 0.0193583 0.0192346 0.019101 0.0189566 0.0188002 0.0186312 0.018449 0.0182541 0.0180484 0.0178353 0.0176188 0.0174025 0.0171879 0.0169701 0.0167367 0.0164692 0.0161565 0.0157955 0.015388 0.0149352 0.0144368 0.0138913 0.0132981 0.0126588 0.0119772 0.0112571 0.0105003 0.00970463 0.00885998 0.00795403 0.00697351 0.00591642 0.00478448 0.0035788 0.00229793 0.000940852 -0.00049486 -0.00200939 -0.00360778 -0.00529357 -0.00706619 -0.00891994 -0.0108919 -0.0128867 -0.0149964 -0.0171982 -0.0195295 -0.0218492 -0.0241979 -0.0265067 -0.0286954 -0.0319656 -0.0344345 -0.0360109 -0.0389875 -0.0430933 -0.0458394 -0.0477516 -0.0522362 -0.0521165 0 0 0 0 0 0 0 0 0 0 0 0 0 0 0 0 0 0 0 0 0 0 0 0 0 0 0 0 0 0 0 0 0 0 0 0 0 0 0 0 0 0 0 0 0 0 0 0 0 0 0 0 0 0 0 0 0 0 0 0 0 0 0 0 0 0 0 0 0 0 0 0 0 0 0 0 0 0 0 0 0 0 0 0 0 0 0 0 0 0 0 0 0 0 0 0 0 0 0 0 0 0 0 0 0 0 0 0 0 0 0 0 0 0 0 0 0 0 0 0 0 0 0 0 0 0 0 0 0 0 0 0 0 0 0 0 0 0 0 0 0 0 0 0 0 0 0 0 0 0 0 0 0 0 0 0 0 0 0 0 0 0 0 0 0 0 0 0 0 0 0 0 0 0 0 0 0 0 0 0 0 0 0 0 0 -0.0504294 -0.053238 -0.0543232 -0.0547201 -0.0548782 -0.0549052 -0.0548622 -0.0547732 -0.0546542 -0.054515 -0.0543636 -0.0542068 -0.0540513 -0.0539034 -0.0537685 -0.0536511 -0.0535539 -0.053478 -0.0534221 -0.0533829 -0.0533558 -0.0533353 -0.0533167 -0.0532968 -0.0532741 -0.0532495 -0.0532236 -0.0531958 -0.0531732 -0.0531555 -0.0532059 -0.0535307 -0.0541442 -0.0558101 -0.063634 -0.0588199 0 0 0 0 0 0 0 0 0 0 0 0 0 0 0 0 0 0 0 0 0 0 0 0 0 0 0 0 0 0 0 0 0 0 0 0 0 0 0 0 0 0 0 0 0 0 -0.0520519 -0.0550742 -0.0558138 -0.0556032 -0.0542011 -0.0508385 -0.0468155 -0.0408598 -0.0333447 -0.0245195 -0.0138998 -1.0842e-18 