# vtk DataFile Version 2.0
iteration 1026
ASCII

DATASET STRUCTURED_POINTS
DIMENSIONS 621 64 1
ORIGIN 0 0 0
SPACING 0.00161031 0.00161031 0.00161031

POINT_DATA 39744
SCALARS P float 1
LOOKUP_TABLE default
0 0 0 0 0 0 0 0 0 0 0 0 0 0 0 0 0 0 0 0 0 0 0 0 0 0 0 0 0 0 0 0 0 0 0 0 0 0 0 0 0 0 0 0 0 0 0 0 0 0 0 0 0 0 0 0 0 0 0 0 0 0 0 0 0 0 0 0 0 0 0 0 0 0 0 0 0 0 0 0 0 0 0 0 0 0 0 0 0 0 0 0 0 0 0 0 0 0 0 0 0 0 0 0 0 0 0 0 0 0 0 0 0 0 0 0 0 0 0 0 0 0 0 0 0 0 0 0 0 0 0 0 0 0 0 0 0 0 0 0 0 0 0 0 0 0 0 0 0 0 0 0 0 0 0 0 0 0 0 0 0 0 0 0 0 0 0 0 0 0 0 0 0 0 0 0 0 0 0 0 0 0 0 0 0 0 0 0 0 0 0 0 0 0 0 0 0 0 0 0 0 0 0 0 0 0 0 0 0 0 0 0 0 0 0 0 0 0 0 0 0 0 0 0 0 0 0 0 0 0 0 0 0 0 0 0 0 0 0 0 0 0 0 0 0 0 0 0 0 0 0 0 0 0 0 0 0 0 0 0 0 0 0 0 0 0 0 0 0 0 0 0 0 0 0 0 0 0 0 0 0 0 0 0 0 0 0 0 0 0 0 0 0 0 0 0 0 0 0 0 0 0 0 0 0 0 0 0 0 0 0 0 0 0 0 0 0 0 0 0 0 0 0 0 0 0 0 0 0 0 0 0 0 0 0 0 0 0 0 0 0 0 0 0 0 0 0 0 0 0 0 0 0 0 0 0 0 0 0 0 0 0 0 0 0 0 0 0 0 0 0 0 0 0 0 0 0 0 0 0 0 0 0 0 0 0 0 0 0 0 0 0 0 0 0 0 0 0 0 0 0 0 0 0 0 0 0 0 0 0 0 0 0 0 0 0 0 0 0 0 0 0 0 0 0 0 0 0 0 0 0 0 0 0 0 0 0 0 0 0 0 0 0 0 0 0 0 0 0 0 0 0 0 0 0 0 0 0 0 0 0 0 0 0 0 0 0 0 0 0 0 0 0 0 0 0 0 0 0 0 0 0 0 0 0 0 0 0 0 0 0 0 0 0 0 0 0 0 0 0 0 0 0 0 0 0 0 0 0 0 0 0 0 0 0 0 0 0 0 0 0 0 0 0 0 0 0 0 0 0 0 0 0 0 0 0 0 0 0 0 0 0 0 0 0 0 0 0 0 0 0 0 0 0 0 0 0 0 0 0 0 0 0 0 0 0 0 0 0 0 0 0 0 0 0 0 0 0 0 0 0 0 0 0 0 0 0 0 0 0 0 0 0 0 0 0 0 0 0 0 0 0 0 0 0 0 0 0 0 0 0 0 0 0 0 0 0 0 0 0 0 
0.02 0.02 0.02 0.02 0.02 0.02 0.02 0.02 0.02 0.02 0.02 0.02 0.02 0.02 0.02 0.02 0.02 0.02 0.02 0.02 0.02 0.02 0.02 0.02 0.02 0.02 0.02 0.02 0.02 0.02 0.02 0.02 0.02 0.02 0.02 0.02 0.02 0.02 0.02 0.02 0.02 0.02 0.02 0.02 0.02 0.02 0.02 0.02 0.02 0.02 0.02 0.02 0.02 0.02 0.0200001 0.0200001 0.0200001 0.0200001 0.0200001 0.0200001 0.0200002 0.0200002 0.0200002 0.0200002 0.0200003 0.0200003 0.0200004 0.0200004 0.0200005 0.0200005 0.0200006 0.0200006 0.0200007 0.0200008 0.0200009 0.020001 0.0200011 0.0200012 0.0200014 0.0200015 0.0200017 0.0200019 0.0200021 0.0200023 0.0200025 0.0200027 0.020003 0.0200033 0.0200036 0.0200039 0.0200043 0.0200047 0.0200051 0.0200056 0.0200061 0.0200066 0.0200072 0.0200077 0.0200084 0.0200091 0.0200098 0.0200105 0.0200113 0.0200122 0.020013 0.0200139 0.0200148 0.0200158 0.0200167 0.0200176 0.0200186 0.0200195 0.0200203 0.0200211 0.0200219 0.0200225 0.020023 0.0200233 0.0200234 0.0200232 0.0200228 0.020022 0.0200207 0.020019 0.0200167 0.0200138 0.0200102 0.0200058 0.0200005 0.0199942 0.0199868 0.0199782 0.0199683 0.019957 0.0199442 0.0199298 0.0199137 0.0198958 0.0198761 0.0198544 0.0198308 0.0198052 0.0197775 0.0197479 0.0197162 0.0196825 0.0196468 0.0196091 0.0195694 0.0195279 0.0194844 0.0194391 0.019392 0.0193433 0.019293 0.0192412 0.019188 0.0191335 0.0190778 0.019021 0.0189633 0.0189046 0.0188451 0.0187849 0.018724 0.0186624 0.0186004 0.0185379 0.0184749 0.0184116 0.018348 0.0182841 0.01822 0.0181557 0.0180913 0.0180267 0.0179621 0.0178975 0.0178328 0.0177681 0.0177035 0.0176389 0.0175743 0.0175098 0.0174455 0.0173812 0.0173172 0.0172534 0.01719 0.0171271 0.0170647 0.0170031 0.0169423 0.0168825 0.0168237 0.016766 0.0167092 0.0166531 0.0165971 0.0165402 0.0164808 0.016417 0.0163461 0.0162666 0.0161797 0.016096 0.0160176 0.015938 0.0158556 0.0157694 0.0156781 0.0155804 0.0154744 0.0153581 0.0152295 0.0150865 0.0149279 0.0147531 0.0145601 0.0143509 0.0141211 0.0138828 0.0136752 0.0137756 0.0139354 0.015946 0 0 0 0 0 0 0 0 0 0 0 0 0 0 0 0 0 0 0 0 0 0 0 0 0 0 0 0 0 0 0 0 0 0 0 0 0 0 0 0 0 0 0 0 0 0 0 0 0 0 0 0 0 0 0 0 0 0 0 0 0 0 0 0 0 0 0 0 0 0 0 0 0 0 0 0 0 0 0 0 0 0 0 0 0 0 0 0 0 0 0 0 0 0 0 0 0 0 0 0 0 0 0 0 0 0 0 0 0 0 0 0 0 0 0 0 0 0 0 0 0 0 0 0 0 0 0 0 0 0 0 0 0 0 0 0 0 0 0 0 0 0 0 0 0 0 0 0 0 0 0 0 0 0 0 0 0 0 0 0 0 0 0 0 0 0 0 0 0 0 0 0 0 0 0 0 0 0 0 0 0 0 0 0 0 0 0 0 0 0 0 0 0 0 0 0 0 0 0 0 0 0 0 0 0 0 0 0 0 0 0 0 0 0 0 0 0 0 0 0 0 0 0 0 0 0 0 0 0 0 0 0 0 0 0 0 0 0 0 0 0 0 0 0 0 0 0 0 0 0 0 0 0 0 0 0 0 0 0 0 0 0 0 0 0 0 0 0 0 0 0 0 0 0 0 0 0 0 0 0 0 0 0 0 0 0 0 0 0 0 0 0 0 0 0 0 0 0 0 0 0 0 0 0 0 0 0 0 0 0 0 0 0 0 0 0 0 0 0 0 0 0 0 0 0 0 0 0 0 0 0 0 0 0 0 0 0 0 0 0 0 0 0 0 0 0 0 0 0 0 0 0 0 0 0 0 0 0 0 0 0 0 0 0 0 0 0 0 0 0 0 0 0 0 0 0 0 0 0 0 0 0 0 0 0 0 0 0 0 0 0 0 0 0 0 
0.02 0.02 0.02 0.02 0.02 0.02 0.02 0.02 0.02 0.02 0.02 0.02 0.02 0.02 0.02 0.02 0.02 0.02 0.02 0.02 0.02 0.02 0.02 0.02 0.02 0.02 0.02 0.02 0.02 0.02 0.02 0.02 0.02 0.02 0.02 0.02 0.02 0.02 0.02 0.02 0.02 0.02 0.02 0.02 0.02 0.02 0.02 0.02 0.02 0.02 0.02 0.02 0.02 0.0200001 0.0200001 0.0200001 0.0200001 0.0200001 0.0200001 0.0200001 0.0200002 0.0200002 0.0200002 0.0200002 0.0200003 0.0200003 0.0200004 0.0200004 0.0200005 0.0200005 0.0200006 0.0200007 0.0200007 0.0200008 0.0200009 0.020001 0.0200011 0.0200013 0.0200014 0.0200015 0.0200017 0.0200019 0.0200021 0.0200023 0.0200025 0.0200028 0.020003 0.0200033 0.0200036 0.020004 0.0200043 0.0200047 0.0200052 0.0200056 0.0200061 0.0200066 0.0200072 0.0200078 0.0200085 0.0200091 0.0200099 0.0200106 0.0200114 0.0200123 0.0200131 0.020014 0.020015 0.0200159 0.0200169 0.0200178 0.0200188 0.0200197 0.0200206 0.0200214 0.0200222 0.0200228 0.0200233 0.0200237 0.0200238 0.0200237 0.0200233 0.0200226 0.0200214 0.0200197 0.0200175 0.0200147 0.0200112 0.0200068 0.0200016 0.0199954 0.0199881 0.0199796 0.0199698 0.0199586 0.0199459 0.0199316 0.0199156 0.0198978 0.0198782 0.0198566 0.0198331 0.0198076 0.0197801 0.0197506 0.019719 0.0196854 0.0196499 0.0196123 0.0195728 0.0195314 0.0194881 0.0194429 0.019396 0.0193475 0.0192974 0.0192458 0.0191928 0.0191385 0.019083 0.0190265 0.018969 0.0189106 0.0188513 0.0187914 0.0187308 0.0186696 0.0186079 0.0185457 0.0184831 0.0184202 0.018357 0.0182935 0.0182299 0.0181661 0.0181021 0.0180381 0.0179741 0.01791 0.017846 0.0177819 0.0177179 0.017654 0.0175902 0.0175264 0.0174627 0.0173992 0.017336 0.0172729 0.0172102 0.017148 0.0170863 0.0170253 0.0169651 0.0169057 0.0168473 0.0167898 0.016733 0.0166764 0.0166192 0.0165603 0.0164982 0.0164314 0.0163587 0.0162805 0.0161984 0.0161179 0.0160386 0.0159579 0.0158742 0.0157866 0.0156939 0.0155946 0.015487 0.0153692 0.0152391 0.015095 0.0149354 0.0147599 0.0145667 0.0143613 0.0141484 0.0139292 0.0137733 0.0138043 0.0133726 0.0138172 0.0133308 0.0125128 0.0118292 0.0111346 0.0104096 0.0095894 0.00863796 0.00764911 0.00672185 0.00602527 0.00624713 0 0 0 0 0 0 0 0 0 0 0 0 0 0 0 0 0 0 0 0 0 0 0 0 0 0 0 0 0 0 0 0 0 0 0 0 0 0 0 0 0 0 0 0 0 0 0 0 0 0 0 0 0 0 0 0 0 0 0 0 0 0 0 0 0 0 0 0 0 0 0 0 0 0 0 0 0 0 0 0 0 0 0 0 0 0 0 0 0 0 0 0 0 0 0 0 0 0 0 0 0 0 0 0 0 0 0 0 0 0 0 0 0 0 0 0 0 0 0 0 0 0 0 0 0 0 0 0 0 0 0 0 0 0 0 0 0 0 0 0 0 0 0 0 0 0 0 0 0 0 0 0 0 0 0 0 0 0 0 0 0 0 0 0 0 0 0 0 0 0 0 0 0 0 0 0 0 0 0 0 0 0 0 0 0 0 0 0 0 0 0 0 0 0 0 0 0 0 0 0 0 0 0 0 0 0 0 0 0 0 0 0 0 0 0 0 0 0 0 0 0 0 0 0 0 0 0 0 0 0 0 0 0 0 0 0 0 0 0 0 0 0 0 0 0 0 0 0 0 0 0 0 0 0 0 0 0 0 0 0 0 0 0 0 0 0 0 0 0 0 0 0 0 0 0 0 0 0 0 0 0 0 0 0 0 0 0 0 0 0 0 0 0 0 0 0 0 0 0 0 0 0 0 0 0 0 0 0 0 0 0 0 0 0 0 0 0 0 0 0 0 0 0 0 0 0 0 0 0 0 0 0 0 0 0 0 0 0 0 0 0 0 0 0 0 0 0 0 0 0 0 0 0 0 0 0 0 0 0 0 0 0 0 0 0 0 0 0 0 0 0 0 0 0 0 0 0 0 0 0 0 0 0 0 
0.02 0.02 0.02 0.02 0.02 0.02 0.02 0.02 0.02 0.02 0.02 0.02 0.02 0.02 0.02 0.02 0.02 0.02 0.02 0.02 0.02 0.02 0.02 0.02 0.02 0.02 0.02 0.02 0.02 0.02 0.02 0.02 0.02 0.02 0.02 0.02 0.02 0.02 0.02 0.02 0.02 0.02 0.02 0.02 0.02 0.02 0.02 0.02 0.02 0.02 0.02 0.02 0.02 0.0200001 0.0200001 0.0200001 0.0200001 0.0200001 0.0200001 0.0200001 0.0200002 0.0200002 0.0200002 0.0200002 0.0200003 0.0200003 0.0200004 0.0200004 0.0200005 0.0200005 0.0200006 0.0200007 0.0200007 0.0200008 0.0200009 0.020001 0.0200011 0.0200013 0.0200014 0.0200016 0.0200017 0.0200019 0.0200021 0.0200023 0.0200025 0.0200028 0.0200031 0.0200034 0.0200037 0.020004 0.0200044 0.0200048 0.0200052 0.0200057 0.0200062 0.0200067 0.0200073 0.0200079 0.0200085 0.0200092 0.02001 0.0200107 0.0200115 0.0200124 0.0200132 0.0200142 0.0200151 0.020016 0.020017 0.020018 0.020019 0.0200199 0.0200208 0.0200217 0.0200224 0.0200231 0.0200237 0.020024 0.0200242 0.0200241 0.0200238 0.0200231 0.0200219 0.0200203 0.0200182 0.0200154 0.0200119 0.0200077 0.0200025 0.0199964 0.0199891 0.0199807 0.019971 0.0199599 0.0199473 0.0199331 0.0199172 0.0198995 0.0198799 0.0198584 0.0198349 0.0198095 0.019782 0.0197525 0.019721 0.0196875 0.0196519 0.0196145 0.019575 0.0195337 0.0194905 0.0194455 0.0193987 0.0193504 0.0193004 0.019249 0.0191963 0.0191422 0.0190871 0.0190308 0.0189737 0.0189156 0.0188569 0.0187974 0.0187373 0.0186767 0.0186156 0.0185541 0.0184922 0.0184301 0.0183678 0.0183052 0.0182426 0.0181798 0.018117 0.0180541 0.0179913 0.0179285 0.0178658 0.0178032 0.0177406 0.0176782 0.0176159 0.0175536 0.0174916 0.0174297 0.017368 0.0173066 0.0172456 0.0171849 0.0171248 0.0170652 0.0170064 0.0169484 0.016891 0.0168343 0.0167777 0.0167206 0.016662 0.0166008 0.0165359 0.0164665 0.0163928 0.0163151 0.0162364 0.0161573 0.0160773 0.0159953 0.0159101 0.0158208 0.0157262 0.0156248 0.0155151 0.0153951 0.0152628 0.0151171 0.014957 0.0147843 0.0146012 0.0144131 0.0142387 0.0140649 0.0139427 0.0139342 0.0139181 0.0135662 0.0130648 0.0124526 0.0117882 0.0110811 0.0103323 0.00950873 0.00860918 0.0077096 0.00677011 0.0059379 0.00530362 0.00413171 0.00275979 0.00131549 -0.000162089 -0.00178068 -0.00328931 0 0 0 0 0 0 0 0 0 0 0 0 0 0 0 0 0 0 0 0 0 0 0 0 0 0 0 0 0 0 0 0 0 0 0 0 0 0 0 0 0 0 0 0 0 0 0 0 0 0 0 0 0 0 0 0 0 0 0 0 0 0 0 0 0 0 0 0 0 0 0 0 0 0 0 0 0 0 0 0 0 0 0 0 0 0 0 0 0 0 0 0 0 0 0 0 0 0 0 0 0 0 0 0 0 0 0 0 0 0 0 0 0 0 0 0 0 0 0 0 0 0 0 0 0 0 0 0 0 0 0 0 0 0 0 0 0 0 0 0 0 0 0 0 0 0 0 0 0 0 0 0 0 0 0 0 0 0 0 0 0 0 0 0 0 0 0 0 0 0 0 0 0 0 0 0 0 0 0 0 0 0 0 0 0 0 0 0 0 0 0 0 0 0 0 0 0 0 0 0 0 0 0 0 0 0 0 0 0 0 0 0 0 0 0 0 0 0 0 0 0 0 0 0 0 0 0 0 0 0 0 0 0 0 0 0 0 0 0 0 0 0 0 0 0 0 0 0 0 0 0 0 0 0 0 0 0 0 0 0 0 0 0 0 0 0 0 0 0 0 0 0 0 0 0 0 0 0 0 0 0 0 0 0 0 0 0 0 0 0 0 0 0 0 0 0 0 0 0 0 0 0 0 0 0 0 0 0 0 0 0 0 0 0 0 0 0 0 0 0 0 0 0 0 0 0 0 0 0 0 0 0 0 0 0 0 0 0 0 0 0 0 0 0 0 0 0 0 0 0 0 0 0 0 0 0 0 0 0 0 0 0 0 0 0 0 0 0 0 0 0 0 0 0 0 0 0 -4.33681e-19 
0.02 0.02 0.02 0.02 0.02 0.02 0.02 0.02 0.02 0.02 0.02 0.02 0.02 0.02 0.02 0.02 0.02 0.02 0.02 0.02 0.02 0.02 0.02 0.02 0.02 0.02 0.02 0.02 0.02 0.02 0.02 0.02 0.02 0.02 0.02 0.02 0.02 0.02 0.02 0.02 0.02 0.02 0.02 0.02 0.02 0.02 0.02 0.02 0.02 0.02 0.02 0.02 0.02 0.0200001 0.0200001 0.0200001 0.0200001 0.0200001 0.0200001 0.0200001 0.0200002 0.0200002 0.0200002 0.0200003 0.0200003 0.0200003 0.0200004 0.0200004 0.0200005 0.0200005 0.0200006 0.0200007 0.0200008 0.0200008 0.0200009 0.020001 0.0200012 0.0200013 0.0200014 0.0200016 0.0200017 0.0200019 0.0200021 0.0200023 0.0200026 0.0200028 0.0200031 0.0200034 0.0200037 0.020004 0.0200044 0.0200048 0.0200052 0.0200057 0.0200062 0.0200067 0.0200073 0.0200079 0.0200086 0.0200093 0.02001 0.0200108 0.0200116 0.0200124 0.0200133 0.0200142 0.0200152 0.0200161 0.0200171 0.0200181 0.020019 0.02002 0.0200209 0.0200218 0.0200226 0.0200233 0.0200238 0.0200242 0.0200244 0.0200244 0.020024 0.0200233 0.0200222 0.0200207 0.0200186 0.0200159 0.0200125 0.0200083 0.0200032 0.0199971 0.01999 0.0199817 0.0199721 0.0199612 0.0199487 0.0199346 0.0199188 0.0199013 0.0198818 0.0198604 0.019837 0.0198116 0.0197842 0.0197548 0.0197233 0.0196899 0.0196545 0.0196171 0.0195778 0.0195366 0.0194936 0.0194488 0.0194023 0.0193542 0.0193046 0.0192535 0.0192011 0.0191475 0.0190928 0.0190371 0.0189805 0.0189231 0.018865 0.0188062 0.018747 0.0186872 0.0186271 0.0185666 0.0185059 0.018445 0.0183839 0.0183227 0.0182615 0.0182002 0.018139 0.0180778 0.0180168 0.0179558 0.017895 0.0178343 0.0177738 0.0177134 0.0176532 0.0175931 0.0175332 0.0174735 0.017414 0.0173548 0.0172959 0.0172373 0.0171792 0.0171217 0.0170647 0.0170082 0.0169521 0.0168961 0.0168396 0.0167817 0.0167216 0.0166582 0.0165911 0.0165203 0.0164462 0.0163699 0.0162922 0.0162132 0.0161324 0.016049 0.015962 0.0158707 0.0157737 0.01567 0.0155578 0.0154355 0.0153016 0.0151556 0.014998 0.014832 0.0146634 0.0144973 0.0143479 0.0142157 0.014082 0.0139828 0.0137979 0.0134632 0.0129785 0.0123961 0.0117479 0.0110458 0.0102909 0.00947792 0.00862237 0.00776982 0.00690201 0.00596829 0.00510492 0.00395384 0.00266826 0.00128482 -9.31917e-05 -0.00163623 -0.00323456 -0.0049663 -0.00679772 -0.00874309 -0.0110256 -0.0139893 0 0 0 0 0 0 0 0 0 0 0 0 0 0 0 0 0 0 0 0 0 0 0 0 0 0 0 0 0 0 0 0 0 0 0 0 0 0 0 0 0 0 0 0 0 0 0 0 0 0 0 0 0 0 0 0 0 0 0 0 0 0 0 0 0 0 0 0 0 0 0 0 0 0 0 0 0 0 0 0 0 0 0 0 0 0 0 0 0 0 0 0 0 0 0 0 0 0 0 0 0 0 0 0 0 0 0 0 0 0 0 0 0 0 0 0 0 0 0 0 0 0 0 0 0 0 0 0 0 0 0 0 0 0 0 0 0 0 0 0 0 0 0 0 0 0 0 0 0 0 0 0 0 0 0 0 0 0 0 0 0 0 0 0 0 0 0 0 0 0 0 0 0 0 0 0 0 0 0 0 0 0 0 0 0 0 0 0 0 0 0 0 0 0 0 0 0 0 0 0 0 0 0 0 0 0 0 0 0 0 0 0 0 0 0 0 0 0 0 0 0 0 0 0 0 0 0 0 0 0 0 0 0 0 0 0 0 0 0 0 0 0 0 0 0 0 0 0 0 0 0 0 0 0 0 0 0 0 0 0 0 0 0 0 0 0 0 0 0 0 0 0 0 0 0 0 0 0 0 0 0 0 0 0 0 0 0 0 0 0 0 0 0 0 0 0 0 0 0 0 0 0 0 0 0 0 0 0 0 0 0 0 0 0 0 0 0 0 0 0 0 0 0 0 0 0 0 0 0 0 0 0 0 0 0 0 0 0 0 0 0 0 0 0 0 0 0 0 0 0 0 0 0 0 0 0 0 0 0 0 0 0 0 0 0 0 0 0 0 0 0 0 0 
0.02 0.02 0.02 0.02 0.02 0.02 0.02 0.02 0.02 0.02 0.02 0.02 0.02 0.02 0.02 0.02 0.02 0.02 0.02 0.02 0.02 0.02 0.02 0.02 0.02 0.02 0.02 0.02 0.02 0.02 0.02 0.02 0.02 0.02 0.02 0.02 0.02 0.02 0.02 0.02 0.02 0.02 0.02 0.02 0.02 0.02 0.02 0.02 0.02 0.02 0.02 0.02 0.02 0.0200001 0.0200001 0.0200001 0.0200001 0.0200001 0.0200001 0.0200001 0.0200002 0.0200002 0.0200002 0.0200003 0.0200003 0.0200003 0.0200004 0.0200004 0.0200005 0.0200005 0.0200006 0.0200007 0.0200008 0.0200008 0.0200009 0.020001 0.0200012 0.0200013 0.0200014 0.0200016 0.0200017 0.0200019 0.0200021 0.0200023 0.0200026 0.0200028 0.0200031 0.0200034 0.0200037 0.020004 0.0200044 0.0200048 0.0200052 0.0200057 0.0200062 0.0200067 0.0200073 0.0200079 0.0200086 0.0200092 0.02001 0.0200107 0.0200116 0.0200124 0.0200133 0.0200142 0.0200151 0.0200161 0.0200171 0.0200181 0.020019 0.02002 0.0200209 0.0200218 0.0200226 0.0200233 0.0200239 0.0200243 0.0200245 0.0200244 0.0200241 0.0200235 0.0200224 0.0200209 0.0200188 0.0200162 0.0200128 0.0200087 0.0200037 0.0199977 0.0199907 0.0199825 0.0199731 0.0199622 0.0199499 0.0199361 0.0199205 0.0199031 0.0198839 0.0198627 0.0198395 0.0198143 0.019787 0.0197577 0.0197264 0.0196932 0.0196579 0.0196207 0.0195817 0.0195407 0.019498 0.0194535 0.0194074 0.0193597 0.0193105 0.01926 0.0192081 0.0191552 0.0191011 0.0190462 0.0189903 0.0189338 0.0188766 0.0188189 0.0187608 0.0187022 0.0186434 0.0185843 0.018525 0.0184657 0.0184063 0.0183468 0.0182875 0.0182282 0.018169 0.01811 0.0180511 0.0179925 0.017934 0.0178758 0.0178177 0.0177599 0.0177023 0.0176448 0.0175875 0.0175304 0.0174736 0.0174169 0.0173606 0.0173045 0.0172488 0.0171935 0.0171385 0.0170837 0.0170289 0.0169734 0.0169167 0.016858 0.0167964 0.0167315 0.0166632 0.0165918 0.016518 0.0164421 0.0163645 0.016285 0.0162031 0.016118 0.0160291 0.0159353 0.0158359 0.0157295 0.0156149 0.0154907 0.0153562 0.015212 0.0150605 0.0149057 0.0147549 0.0146122 0.0144785 0.0143554 0.0142069 0.0140051 0.0137633 0.0133954 0.0129153 0.0123498 0.0117157 0.0110236 0.0102768 0.00948679 0.00866154 0.00782618 0.00697437 0.00606308 0.00501619 0.00385185 0.00258958 0.00123987 -0.000164255 -0.00162689 -0.00327755 -0.00495129 -0.0067618 -0.00866403 -0.0102759 -0.0129803 -0.0152754 -0.0174577 -0.0202131 -0.0250829 0 0 0 0 0 0 0 0 0 0 0 0 0 0 0 0 0 0 0 0 0 0 0 0 0 0 0 0 0 0 0 0 0 0 0 0 0 0 0 0 0 0 0 0 0 0 0 0 0 0 0 0 0 0 0 0 0 0 0 0 0 0 0 0 0 0 0 0 0 0 0 0 0 0 0 0 0 0 0 0 0 0 0 0 0 0 0 0 0 0 0 0 0 0 0 0 0 0 0 0 0 0 0 0 0 0 0 0 0 0 0 0 0 0 0 0 0 0 0 0 0 0 0 0 0 0 0 0 0 0 0 0 0 0 0 0 0 0 0 0 0 0 0 0 0 0 0 0 0 0 0 0 0 0 0 0 0 0 0 0 0 0 0 0 0 0 0 0 0 0 0 0 0 0 0 0 0 0 0 0 0 0 0 0 0 0 0 0 0 0 0 0 0 0 0 0 0 0 0 0 0 0 0 0 0 0 0 0 0 0 0 0 0 0 0 0 0 0 0 0 0 0 0 0 0 0 0 0 0 0 0 0 0 0 0 0 0 0 0 0 0 0 0 0 0 0 0 0 0 0 0 0 0 0 0 0 0 0 0 0 0 0 0 0 0 0 0 0 0 0 0 0 0 0 0 0 0 0 0 0 0 0 0 0 0 0 0 0 0 0 0 0 0 0 0 0 0 0 0 0 0 0 0 0 0 0 0 0 0 0 0 0 0 0 0 0 0 0 0 0 0 0 0 0 0 0 0 0 0 0 0 0 0 0 0 0 0 0 0 0 0 0 0 0 0 0 0 0 0 0 0 0 0 0 0 0 0 0 0 0 0 0 0 0 0 0 0 -0.0057893 -6.50521e-19 
0.02 0.02 0.02 0.02 0.02 0.02 0.02 0.02 0.02 0.02 0.02 0.02 0.02 0.02 0.02 0.02 0.02 0.02 0.02 0.02 0.02 0.02 0.02 0.02 0.02 0.02 0.02 0.02 0.02 0.02 0.02 0.02 0.02 0.02 0.02 0.02 0.02 0.02 0.02 0.02 0.02 0.02 0.02 0.02 0.02 0.02 0.02 0.02 0.02 0.02 0.02 0.02 0.0200001 0.0200001 0.0200001 0.0200001 0.0200001 0.0200001 0.0200001 0.0200002 0.0200002 0.0200002 0.0200002 0.0200003 0.0200003 0.0200003 0.0200004 0.0200004 0.0200005 0.0200005 0.0200006 0.0200007 0.0200008 0.0200008 0.0200009 0.020001 0.0200012 0.0200013 0.0200014 0.0200016 0.0200017 0.0200019 0.0200021 0.0200023 0.0200025 0.0200028 0.0200031 0.0200033 0.0200037 0.020004 0.0200044 0.0200048 0.0200052 0.0200056 0.0200061 0.0200067 0.0200072 0.0200078 0.0200085 0.0200092 0.0200099 0.0200107 0.0200115 0.0200123 0.0200132 0.0200141 0.020015 0.020016 0.020017 0.0200179 0.0200189 0.0200199 0.0200208 0.0200217 0.0200225 0.0200232 0.0200238 0.0200242 0.0200244 0.0200244 0.0200241 0.0200235 0.0200224 0.020021 0.020019 0.0200163 0.020013 0.020009 0.0200041 0.0199982 0.0199913 0.0199832 0.0199739 0.0199632 0.0199511 0.0199375 0.0199221 0.019905 0.0198861 0.0198652 0.0198423 0.0198174 0.0197904 0.0197614 0.0197304 0.0196973 0.0196624 0.0196255 0.0195868 0.0195462 0.0195039 0.0194599 0.0194143 0.0193671 0.0193186 0.0192687 0.0192176 0.0191654 0.0191123 0.0190583 0.0190035 0.0189481 0.0188921 0.0188357 0.0187789 0.0187219 0.0186646 0.0186073 0.0185498 0.0184924 0.018435 0.0183777 0.0183206 0.0182637 0.018207 0.0181505 0.0180943 0.0180384 0.0179827 0.0179273 0.0178722 0.0178173 0.0177627 0.0177082 0.017654 0.0175999 0.017546 0.0174923 0.0174388 0.0173855 0.0173325 0.0172795 0.0172266 0.0171735 0.0171197 0.0170647 0.0170077 0.0169482 0.0168857 0.0168199 0.0167511 0.0166797 0.0166059 0.0165301 0.0164521 0.0163718 0.0162884 0.0162016 0.0161104 0.0160142 0.0159121 0.0158032 0.0156866 0.0155618 0.015429 0.0152899 0.0151481 0.0150079 0.0148733 0.0147469 0.014621 0.0144844 0.0143225 0.0140908 0.0137737 0.0133683 0.0128828 0.0123246 0.0117003 0.0110201 0.0102901 0.00952201 0.00872014 0.00788248 0.00700301 0.00604072 0.00497699 0.00381 0.00254922 0.00120213 -0.000223655 -0.00173988 -0.00335048 -0.00502883 -0.00680809 -0.00873265 -0.0107863 -0.0128991 -0.0150982 -0.0169357 -0.0195476 -0.0227744 -0.0252278 -0.0276062 -0.0299131 -0.0362325 -0.0360474 0 0 0 0 0 0 0 0 0 0 0 0 0 0 0 0 0 0 0 0 0 0 0 0 0 0 0 0 0 0 0 0 0 0 0 0 0 0 0 0 0 0 0 0 0 0 0 0 0 0 0 0 0 0 0 0 0 0 0 0 0 0 0 0 0 0 0 0 0 0 0 0 0 0 0 0 0 0 0 0 0 0 0 0 0 0 0 0 0 0 0 0 0 0 0 0 0 0 0 0 0 0 0 0 0 0 0 0 0 0 0 0 0 0 0 0 0 0 0 0 0 0 0 0 0 0 0 0 0 0 0 0 0 0 0 0 0 0 0 0 0 0 0 0 0 0 0 0 0 0 0 0 0 0 0 0 0 0 0 0 0 0 0 0 0 0 0 0 0 0 0 0 0 0 0 0 0 0 0 0 0 0 0 0 0 0 0 0 0 0 0 0 0 0 0 0 0 0 0 0 0 0 0 0 0 0 0 0 0 0 0 0 0 0 0 0 0 0 0 0 0 0 0 0 0 0 0 0 0 0 0 0 0 0 0 0 0 0 0 0 0 0 0 0 0 0 0 0 0 0 0 0 0 0 0 0 0 0 0 0 0 0 0 0 0 0 0 0 0 0 0 0 0 0 0 0 0 0 0 0 0 0 0 0 0 0 0 0 0 0 0 0 0 0 0 0 0 0 0 0 0 0 0 0 0 0 0 0 0 0 0 0 0 0 0 0 0 0 0 0 0 0 0 0 0 0 0 0 0 0 0 0 0 0 0 0 0 0 0 0 0 0 0 0 0 0 0 0 0 0 0 0 0 0 0 0 0 0 0 0 -0.0242336 -0.017731 -0.00934206 -2.1684e-19 
0.02 0.02 0.02 0.02 0.02 0.02 0.02 0.02 0.02 0.02 0.02 0.02 0.02 0.02 0.02 0.02 0.02 0.02 0.02 0.02 0.02 0.02 0.02 0.02 0.02 0.02 0.02 0.02 0.02 0.02 0.02 0.02 0.02 0.02 0.02 0.02 0.02 0.02 0.02 0.02 0.02 0.02 0.02 0.02 0.02 0.02 0.02 0.02 0.02 0.02 0.02 0.02 0.0200001 0.0200001 0.0200001 0.0200001 0.0200001 0.0200001 0.0200001 0.0200002 0.0200002 0.0200002 0.0200002 0.0200003 0.0200003 0.0200003 0.0200004 0.0200004 0.0200005 0.0200005 0.0200006 0.0200007 0.0200008 0.0200008 0.0200009 0.020001 0.0200011 0.0200013 0.0200014 0.0200016 0.0200017 0.0200019 0.0200021 0.0200023 0.0200025 0.0200027 0.020003 0.0200033 0.0200036 0.0200039 0.0200043 0.0200047 0.0200051 0.0200056 0.0200061 0.0200066 0.0200071 0.0200077 0.0200084 0.020009 0.0200098 0.0200105 0.0200113 0.0200121 0.020013 0.0200139 0.0200148 0.0200158 0.0200168 0.0200177 0.0200187 0.0200197 0.0200206 0.0200215 0.0200223 0.020023 0.0200236 0.020024 0.0200242 0.0200242 0.020024 0.0200234 0.0200224 0.0200209 0.020019 0.0200164 0.0200132 0.0200092 0.0200044 0.0199986 0.0199918 0.0199839 0.0199747 0.0199642 0.0199523 0.0199389 0.0199238 0.019907 0.0198884 0.0198679 0.0198454 0.0198209 0.0197944 0.0197657 0.0197351 0.0197025 0.0196679 0.0196314 0.0195931 0.0195531 0.0195113 0.0194679 0.0194229 0.0193765 0.0193287 0.0192797 0.0192296 0.0191784 0.0191263 0.0190735 0.01902 0.0189659 0.0189114 0.0188566 0.0188015 0.0187463 0.0186909 0.0186356 0.0185803 0.0185251 0.0184701 0.0184153 0.0183608 0.0183065 0.0182526 0.0181991 0.0181459 0.0180931 0.0180406 0.0179884 0.0179366 0.017885 0.0178337 0.0177826 0.0177317 0.017681 0.0176304 0.0175799 0.0175296 0.0174793 0.0174289 0.0173785 0.0173277 0.0172761 0.0172232 0.0171685 0.0171115 0.0170515 0.0169885 0.0169224 0.0168535 0.0167821 0.0167084 0.0166323 0.0165537 0.0164723 0.0163874 0.0162986 0.0162052 0.0161065 0.016002 0.0158912 0.015774 0.0156505 0.0155221 0.015391 0.0152603 0.0151331 0.0150095 0.0148863 0.0147543 0.0145938 0.0143884 0.0141249 0.0137863 0.0133696 0.012879 0.0123221 0.0117048 0.0110371 0.0103242 0.00957222 0.0087805 0.00793508 0.00702522 0.00603882 0.00495768 0.00378257 0.00251917 0.00117279 -0.000266951 -0.00178819 -0.00340946 -0.00511035 -0.00689313 -0.00884503 -0.0108478 -0.0129537 -0.0151633 -0.0172864 -0.0194578 -0.0223829 -0.024711 -0.0270469 -0.0294762 -0.0328614 -0.0360079 -0.0380161 -0.0396538 -0.0428211 -0.0504239 0 0 0 0 0 0 0 0 0 0 0 0 0 0 0 0 0 0 0 0 0 0 0 0 0 0 0 0 0 0 0 0 0 0 0 0 0 0 0 0 0 0 0 0 0 0 0 0 0 0 0 0 0 0 0 0 0 0 0 0 0 0 0 0 0 0 0 0 0 0 0 0 0 0 0 0 0 0 0 0 0 0 0 0 0 0 0 0 0 0 0 0 0 0 0 0 0 0 0 0 0 0 0 0 0 0 0 0 0 0 0 0 0 0 0 0 0 0 0 0 0 0 0 0 0 0 0 0 0 0 0 0 0 0 0 0 0 0 0 0 0 0 0 0 0 0 0 0 0 0 0 0 0 0 0 0 0 0 0 0 0 0 0 0 0 0 0 0 0 0 0 0 0 0 0 0 0 0 0 0 0 0 0 0 0 0 0 0 0 0 0 0 0 0 0 0 0 0 0 0 0 0 0 0 0 0 0 0 0 0 0 0 0 0 0 0 0 0 0 0 0 0 0 0 0 0 0 0 0 0 0 0 0 0 0 0 0 0 0 0 0 0 0 0 0 0 0 0 0 0 0 0 0 0 0 0 0 0 0 0 0 0 0 0 0 0 0 0 0 0 0 0 0 0 0 0 0 0 0 0 0 0 0 0 0 0 0 0 0 0 0 0 0 0 0 0 0 0 0 0 0 0 0 0 0 0 0 0 0 0 0 0 0 0 0 0 0 0 0 0 0 0 0 0 0 0 0 0 0 0 0 0 0 0 0 0 0 0 0 0 0 0 0 0 0 0 0 0 0 0 0 0 -0.0400818 -0.0413914 -0.0390496 -0.034298 -0.0279405 -0.0203214 -0.0113181 -6.50521e-19 
0.02 0.02 0.02 0.02 0.02 0.02 0.02 0.02 0.02 0.02 0.02 0.02 0.02 0.02 0.02 0.02 0.02 0.02 0.02 0.02 0.02 0.02 0.02 0.02 0.02 0.02 0.02 0.02 0.02 0.02 0.02 0.02 0.02 0.02 0.02 0.02 0.02 0.02 0.02 0.02 0.02 0.02 0.02 0.02 0.02 0.02 0.02 0.02 0.02 0.02 0.02 0.02 0.0200001 0.0200001 0.0200001 0.0200001 0.0200001 0.0200001 0.0200001 0.0200002 0.0200002 0.0200002 0.0200002 0.0200003 0.0200003 0.0200003 0.0200004 0.0200004 0.0200005 0.0200005 0.0200006 0.0200007 0.0200007 0.0200008 0.0200009 0.020001 0.0200011 0.0200013 0.0200014 0.0200015 0.0200017 0.0200019 0.020002 0.0200022 0.0200025 0.0200027 0.020003 0.0200032 0.0200035 0.0200039 0.0200042 0.0200046 0.020005 0.0200055 0.0200059 0.0200064 0.020007 0.0200076 0.0200082 0.0200089 0.0200096 0.0200103 0.0200111 0.0200119 0.0200128 0.0200137 0.0200146 0.0200155 0.0200165 0.0200174 0.0200184 0.0200194 0.0200203 0.0200211 0.0200219 0.0200227 0.0200233 0.0200237 0.0200239 0.020024 0.0200237 0.0200232 0.0200222 0.0200208 0.0200189 0.0200164 0.0200133 0.0200094 0.0200046 0.019999 0.0199923 0.0199846 0.0199756 0.0199653 0.0199536 0.0199404 0.0199256 0.0199092 0.0198909 0.0198709 0.0198489 0.0198248 0.0197988 0.0197707 0.0197406 0.0197085 0.0196745 0.0196386 0.0196009 0.0195614 0.0195203 0.0194777 0.0194335 0.019388 0.0193411 0.0192932 0.0192441 0.0191942 0.0191434 0.0190919 0.0190399 0.0189874 0.0189347 0.0188816 0.0188285 0.0187752 0.0187221 0.018669 0.0186161 0.0185635 0.0185112 0.0184592 0.0184076 0.0183564 0.0183056 0.0182553 0.0182055 0.018156 0.018107 0.0180584 0.0180102 0.0179622 0.0179146 0.0178671 0.0178198 0.0177727 0.0177256 0.0176786 0.0176315 0.0175843 0.0175368 0.0174888 0.01744 0.0173899 0.0173379 0.0172837 0.0172267 0.0171667 0.0171036 0.0170376 0.0169688 0.0168975 0.0168237 0.0167472 0.0166679 0.0165853 0.0164989 0.0164082 0.0163126 0.0162117 0.0161054 0.0159938 0.0158774 0.0157573 0.0156353 0.0155135 0.0153937 0.0152762 0.0151585 0.0150323 0.0148866 0.0147066 0.0144744 0.0141792 0.0138167 0.0133869 0.0128922 0.0123376 0.0117283 0.0110719 0.0103724 0.00963007 0.00883785 0.0079877 0.007062 0.00605226 0.00495534 0.00377182 0.00250257 0.00114669 -0.000297809 -0.00183477 -0.00346643 -0.00519167 -0.00701132 -0.00892302 -0.0109577 -0.0130359 -0.0152371 -0.017514 -0.0199377 -0.0223426 -0.0246657 -0.0270627 -0.029705 -0.032463 -0.0351982 -0.0372955 -0.0386471 -0.0416056 -0.0458029 -0.0480601 -0.0494065 -0.0504781 -0.0509402 -0.0532618 -0.0568518 -0.0665994 0 0 0 0 0 0 0 0 0 0 0 0 0 0 0 0 0 0 0 0 0 0 0 0 0 0 0 0 0 0 0 0 0 0 0 0 0 0 0 0 0 0 0 0 0 0 0 0 0 0 0 0 0 0 0 0 0 0 0 0 0 0 0 0 0 0 0 0 0 0 0 0 0 0 0 0 0 0 0 0 0 0 0 0 0 0 0 0 0 0 0 0 0 0 0 0 0 0 0 0 0 0 0 0 0 0 0 0 0 0 0 0 0 0 0 0 0 0 0 0 0 0 0 0 0 0 0 0 0 0 0 0 0 0 0 0 0 0 0 0 0 0 0 0 0 0 0 0 0 0 0 0 0 0 0 0 0 0 0 0 0 0 0 0 0 0 0 0 0 0 0 0 0 0 0 0 0 0 0 0 0 0 0 0 0 0 0 0 -0.0490788 -0.0531489 -0.0545026 -0.0548058 -0.0547843 -0.0546647 -0.0544806 -0.0542669 -0.0540494 -0.05384 -0.0536444 -0.0534662 -0.0533077 -0.0531701 -0.0530527 -0.0529532 -0.052868 -0.0527934 -0.0527259 -0.0526634 -0.0526042 -0.0525478 -0.0524937 -0.0524422 -0.0523935 -0.0523479 -0.0523057 -0.0522672 -0.0522328 -0.0522024 -0.0521764 -0.0521548 -0.0521378 -0.0521253 -0.0521176 -0.0521144 -0.0521158 -0.0521216 -0.0521317 -0.0521457 -0.0521634 -0.0521843 -0.0522082 -0.0522346 -0.0522635 -0.0522947 -0.0523285 -0.052365 -0.0524049 -0.0524485 -0.0524966 -0.0525518 -0.0526223 -0.0527261 -0.0528872 -0.0531896 -0.0544383 -0.0634375 0 0 0 0 0 0 0 0 0 0 0 -0.0591231 -0.0659127 -0.0586119 0 0 0 0 0 0 0 0 0 0 0 0 0 0 0 0 0 0 0 0 0 0 0 0 0 0 0 0 0 0 0 0 0 0 0 0 0 0 0 0 0 0 0 0 0 0 0 0 0 0 0 0 0 0 0 0 -0.0506211 -0.0531103 -0.0538415 -0.0542024 -0.0542799 -0.0542461 -0.0541504 -0.0540136 -0.0538513 -0.0536722 -0.0534822 -0.0532855 -0.0530858 -0.0528857 -0.0526868 -0.0524902 -0.052296 -0.0521043 -0.0519137 -0.0517202 -0.0515089 -0.0512137 -0.0507081 -0.0500774 -0.0495297 -0.0489726 -0.0483406 -0.0475202 -0.0463174 -0.0442545 -0.0423801 -0.0394027 -0.0348717 -0.0289279 -0.02164 -0.01245 8.67362e-19 