# vtk DataFile Version 2.0
iteration 1080
ASCII

DATASET STRUCTURED_POINTS
DIMENSIONS 621 64 1
ORIGIN 0 0 0
SPACING 0.00161031 0.00161031 0.00161031

POINT_DATA 39744
SCALARS P float 1
LOOKUP_TABLE default
0 0 0 0 0 0 0 0 0 0 0 0 0 0 0 0 0 0 0 0 0 0 0 0 0 0 0 0 0 0 0 0 0 0 0 0 0 0 0 0 0 0 0 0 0 0 0 0 0 0 0 0 0 0 0 0 0 0 0 0 0 0 0 0 0 0 0 0 0 0 0 0 0 0 0 0 0 0 0 0 0 0 0 0 0 0 0 0 0 0 0 0 0 0 0 0 0 0 0 0 0 0 0 0 0 0 0 0 0 0 0 0 0 0 0 0 0 0 0 0 0 0 0 0 0 0 0 0 0 0 0 0 0 0 0 0 0 0 0 0 0 0 0 0 0 0 0 0 0 0 0 0 0 0 0 0 0 0 0 0 0 0 0 0 0 0 0 0 0 0 0 0 0 0 0 0 0 0 0 0 0 0 0 0 0 0 0 0 0 0 0 0 0 0 0 0 0 0 0 0 0 0 0 0 0 0 0 0 0 0 0 0 0 0 0 0 0 0 0 0 0 0 0 0 0 0 0 0 0 0 0 0 0 0 0 0 0 0 0 0 0 0 0 0 0 0 0 0 0 0 0 0 0 0 0 0 0 0 0 0 0 0 0 0 0 0 0 0 0 0 0 0 0 0 0 0 0 0 0 0 0 0 0 0 0 0 0 0 0 0 0 0 0 0 0 0 0 0 0 0 0 0 0 0 0 0 0 0 0 0 0 0 0 0 0 0 0 0 0 0 0 0 0 0 0 0 0 0 0 0 0 0 0 0 0 0 0 0 0 0 0 0 0 0 0 0 0 0 0 0 0 0 0 0 0 0 0 0 0 0 0 0 0 0 0 0 0 0 0 0 0 0 0 0 0 0 0 0 0 0 0 0 0 0 0 0 0 0 0 0 0 0 0 0 0 0 0 0 0 0 0 0 0 0 0 0 0 0 0 0 0 0 0 0 0 0 0 0 0 0 0 0 0 0 0 0 0 0 0 0 0 0 0 0 0 0 0 0 0 0 0 0 0 0 0 0 0 0 0 0 0 0 0 0 0 0 0 0 0 0 0 0 0 0 0 0 0 0 0 0 0 0 0 0 0 0 0 0 0 0 0 0 0 0 0 0 0 0 0 0 0 0 0 0 0 0 0 0 0 0 0 0 0 0 0 0 0 0 0 0 0 0 0 0 0 0 0 0 0 0 0 0 0 0 0 0 0 0 0 0 0 0 0 0 0 0 0 0 0 0 0 0 0 0 0 0 0 0 0 0 0 0 0 0 0 0 0 0 0 0 0 0 0 0 0 0 0 0 0 0 0 0 0 0 0 0 0 0 0 0 0 0 0 0 0 0 0 0 0 0 0 0 0 0 0 0 0 0 0 0 0 0 0 0 0 0 0 0 0 0 0 0 0 0 0 0 0 0 0 0 0 
0.02 0.02 0.02 0.02 0.02 0.02 0.02 0.02 0.02 0.02 0.02 0.02 0.02 0.02 0.02 0.02 0.02 0.02 0.02 0.02 0.02 0.02 0.02 0.02 0.02 0.02 0.02 0.02 0.02 0.02 0.02 0.02 0.02 0.02 0.02 0.02 0.02 0.02 0.02 0.02 0.02 0.02 0.02 0.02 0.02 0.02 0.02 0.02 0.02 0.02 0.02 0.02 0.02 0.02 0.0200001 0.0200001 0.0200001 0.0200001 0.0200001 0.0200001 0.0200001 0.0200001 0.0200001 0.0200001 0.0200001 0.0200001 0.0200001 0.0200001 0.0200001 0.0200001 0.0200001 0.0200001 0.0200001 0.0200001 0.0200001 0.0200001 0.0200001 0.0200001 0.0200001 0.02 0.02 0.02 0.0199999 0.0199999 0.0199998 0.0199997 0.0199996 0.0199995 0.0199994 0.0199993 0.0199991 0.019999 0.0199988 0.0199986 0.0199983 0.019998 0.0199977 0.0199974 0.019997 0.0199965 0.019996 0.0199954 0.0199947 0.019994 0.0199932 0.0199923 0.0199912 0.0199901 0.0199888 0.0199874 0.0199858 0.019984 0.0199821 0.0199799 0.0199775 0.0199748 0.0199719 0.0199686 0.019965 0.0199611 0.0199568 0.0199521 0.019947 0.0199414 0.0199353 0.0199287 0.0199216 0.0199139 0.0199056 0.0198967 0.0198872 0.0198771 0.0198664 0.019855 0.0198429 0.0198303 0.019817 0.0198032 0.0197888 0.019774 0.0197587 0.019743 0.0197271 0.019711 0.0196948 0.0196787 0.0196627 0.019647 0.0196317 0.0196169 0.0196027 0.0195891 0.0195764 0.0195646 0.0195539 0.0195443 0.0195359 0.0195289 0.0195233 0.0195191 0.0195166 0.0195157 0.0195164 0.0195189 0.0195231 0.019529 0.0195367 0.0195461 0.0195571 0.0195698 0.0195841 0.0195999 0.0196172 0.0196358 0.0196558 0.0196771 0.0196994 0.0197229 0.0197473 0.0197725 0.0197986 0.0198254 0.0198529 0.019881 0.0199096 0.0199387 0.0199683 0.0199984 0.020029 0.0200601 0.0200916 0.0201238 0.0201566 0.0201901 0.0202244 0.0202595 0.0202955 0.0203325 0.0203705 0.0204094 0.0204493 0.0204902 0.0205318 0.0205741 0.0206168 0.0206597 0.0207023 0.0207442 0.0207849 0.0208237 0.02086 0.020893 0.0209217 0.0209452 0.0209626 0.0209725 0.0209741 0.0209659 0.0209468 0.0209157 0.0208712 0.0208123 0.0207377 0.0206464 0.0205373 0.0204092 0.0202611 0.0200919 0.0199004 0.0196857 0.0194459 0.0191775 0.0188767 0.0185452 0.0181967 0.0178863 0.0179039 0.0205732 0 0 0 0 0 0 0 0 0 0 0 0 0 0 0 0 0 0 0 0 0 0 0 0 0 0 0 0 0 0 0 0 0 0 0 0 0 0 0 0 0 0 0 0 0 0 0 0 0 0 0 0 0 0 0 0 0 0 0 0 0 0 0 0 0 0 0 0 0 0 0 0 0 0 0 0 0 0 0 0 0 0 0 0 0 0 0 0 0 0 0 0 0 0 0 0 0 0 0 0 0 0 0 0 0 0 0 0 0 0 0 0 0 0 0 0 0 0 0 0 0 0 0 0 0 0 0 0 0 0 0 0 0 0 0 0 0 0 0 0 0 0 0 0 0 0 0 0 0 0 0 0 0 0 0 0 0 0 0 0 0 0 0 0 0 0 0 0 0 0 0 0 0 0 0 0 0 0 0 0 0 0 0 0 0 0 0 0 0 0 0 0 0 0 0 0 0 0 0 0 0 0 0 0 0 0 0 0 0 0 0 0 0 0 0 0 0 0 0 0 0 0 0 0 0 0 0 0 0 0 0 0 0 0 0 0 0 0 0 0 0 0 0 0 0 0 0 0 0 0 0 0 0 0 0 0 0 0 0 0 0 0 0 0 0 0 0 0 0 0 0 0 0 0 0 0 0 0 0 0 0 0 0 0 0 0 0 0 0 0 0 0 0 0 0 0 0 0 0 0 0 0 0 0 0 0 0 0 0 0 0 0 0 0 0 0 0 0 0 0 0 0 0 0 0 0 0 0 0 0 0 0 0 0 0 0 0 0 0 0 0 0 0 0 0 0 0 0 0 0 0 0 0 0 0 0 0 0 0 0 0 0 0 0 0 0 0 0 0 0 0 0 0 0 0 0 0 0 0 0 0 0 0 
0.02 0.02 0.02 0.02 0.02 0.02 0.02 0.02 0.02 0.02 0.02 0.02 0.02 0.02 0.02 0.02 0.02 0.02 0.02 0.02 0.02 0.02 0.02 0.02 0.02 0.02 0.02 0.02 0.02 0.02 0.02 0.02 0.02 0.02 0.02 0.02 0.02 0.02 0.02 0.02 0.02 0.02 0.02 0.02 0.02 0.02 0.02 0.02 0.02 0.02 0.02 0.02 0.02 0.02 0.02 0.0200001 0.0200001 0.0200001 0.0200001 0.0200001 0.0200001 0.0200001 0.0200001 0.0200001 0.0200001 0.0200001 0.0200001 0.0200001 0.0200001 0.0200001 0.0200001 0.0200001 0.0200001 0.0200001 0.0200001 0.0200001 0.0200001 0.02 0.02 0.02 0.02 0.0199999 0.0199999 0.0199998 0.0199997 0.0199997 0.0199996 0.0199995 0.0199994 0.0199992 0.0199991 0.0199989 0.0199987 0.0199985 0.0199982 0.0199979 0.0199976 0.0199972 0.0199968 0.0199964 0.0199958 0.0199953 0.0199946 0.0199939 0.019993 0.0199921 0.0199911 0.0199899 0.0199886 0.0199872 0.0199856 0.0199838 0.0199819 0.0199797 0.0199773 0.0199746 0.0199717 0.0199684 0.0199649 0.019961 0.0199567 0.019952 0.0199468 0.0199413 0.0199352 0.0199287 0.0199216 0.0199139 0.0199057 0.0198968 0.0198874 0.0198773 0.0198666 0.0198552 0.0198433 0.0198306 0.0198174 0.0198036 0.0197893 0.0197745 0.0197593 0.0197436 0.0197277 0.0197116 0.0196954 0.0196793 0.0196633 0.0196476 0.0196323 0.0196174 0.0196032 0.0195896 0.0195768 0.019565 0.0195541 0.0195445 0.019536 0.0195288 0.0195231 0.0195189 0.0195162 0.0195151 0.0195157 0.019518 0.0195221 0.0195278 0.0195353 0.0195444 0.0195553 0.0195678 0.0195818 0.0195974 0.0196145 0.0196329 0.0196527 0.0196737 0.0196958 0.019719 0.0197432 0.0197683 0.0197941 0.0198207 0.019848 0.0198758 0.0199042 0.0199331 0.0199625 0.0199923 0.0200227 0.0200535 0.0200848 0.0201167 0.0201492 0.0201824 0.0202164 0.0202511 0.0202868 0.0203233 0.0203609 0.0203994 0.0204388 0.0204791 0.0205202 0.0205619 0.020604 0.0206462 0.0206882 0.0207294 0.0207694 0.0208075 0.0208431 0.0208754 0.0209035 0.0209264 0.0209432 0.0209527 0.0209537 0.0209452 0.0209259 0.0208946 0.0208501 0.0207913 0.020717 0.020626 0.0205173 0.0203898 0.0202423 0.0200738 0.0198831 0.0196693 0.0194304 0.019163 0.0188636 0.0185345 0.018198 0.0179132 0.0178109 0.0179958 0.0174056 0.0166239 0.0160854 0.0155233 0.0149332 0.014301 0.0136118 0.0128182 0.0118512 0.0109052 0.00993672 0.00926604 0.00983817 0 0 0 0 0 0 0 0 0 0 0 0 0 0 0 0 0 0 0 0 0 0 0 0 0 0 0 0 0 0 0 0 0 0 0 0 0 0 0 0 0 0 0 0 0 0 0 0 0 0 0 0 0 0 0 0 0 0 0 0 0 0 0 0 0 0 0 0 0 0 0 0 0 0 0 0 0 0 0 0 0 0 0 0 0 0 0 0 0 0 0 0 0 0 0 0 0 0 0 0 0 0 0 0 0 0 0 0 0 0 0 0 0 0 0 0 0 0 0 0 0 0 0 0 0 0 0 0 0 0 0 0 0 0 0 0 0 0 0 0 0 0 0 0 0 0 0 0 0 0 0 0 0 0 0 0 0 0 0 0 0 0 0 0 0 0 0 0 0 0 0 0 0 0 0 0 0 0 0 0 0 0 0 0 0 0 0 0 0 0 0 0 0 0 0 0 0 0 0 0 0 0 0 0 0 0 0 0 0 0 0 0 0 0 0 0 0 0 0 0 0 0 0 0 0 0 0 0 0 0 0 0 0 0 0 0 0 0 0 0 0 0 0 0 0 0 0 0 0 0 0 0 0 0 0 0 0 0 0 0 0 0 0 0 0 0 0 0 0 0 0 0 0 0 0 0 0 0 0 0 0 0 0 0 0 0 0 0 0 0 0 0 0 0 0 0 0 0 0 0 0 0 0 0 0 0 0 0 0 0 0 0 0 0 0 0 0 0 0 0 0 0 0 0 0 0 0 0 0 0 0 0 0 0 0 0 0 0 0 0 0 0 0 0 0 0 0 0 0 0 0 0 0 0 0 0 0 0 0 0 0 0 0 0 0 0 0 0 0 0 
0.02 0.02 0.02 0.02 0.02 0.02 0.02 0.02 0.02 0.02 0.02 0.02 0.02 0.02 0.02 0.02 0.02 0.02 0.02 0.02 0.02 0.02 0.02 0.02 0.02 0.02 0.02 0.02 0.02 0.02 0.02 0.02 0.02 0.02 0.02 0.02 0.02 0.02 0.02 0.02 0.02 0.02 0.02 0.02 0.02 0.02 0.02 0.02 0.02 0.02 0.02 0.02 0.02 0.02 0.02 0.02 0.0200001 0.0200001 0.0200001 0.0200001 0.0200001 0.0200001 0.0200001 0.0200001 0.0200001 0.0200001 0.0200001 0.0200001 0.0200001 0.0200001 0.0200001 0.0200001 0.0200001 0.0200001 0.0200001 0.02 0.02 0.02 0.02 0.0199999 0.0199999 0.0199999 0.0199998 0.0199997 0.0199997 0.0199996 0.0199995 0.0199994 0.0199993 0.0199991 0.019999 0.0199988 0.0199986 0.0199983 0.0199981 0.0199978 0.0199974 0.0199971 0.0199966 0.0199962 0.0199956 0.019995 0.0199943 0.0199936 0.0199928 0.0199918 0.0199908 0.0199896 0.0199883 0.0199868 0.0199852 0.0199835 0.0199815 0.0199793 0.0199769 0.0199742 0.0199713 0.019968 0.0199645 0.0199605 0.0199563 0.0199516 0.0199465 0.0199409 0.0199349 0.0199284 0.0199213 0.0199137 0.0199055 0.0198967 0.0198872 0.0198772 0.0198666 0.0198553 0.0198433 0.0198308 0.0198176 0.0198039 0.0197896 0.0197749 0.0197596 0.019744 0.0197282 0.0197121 0.0196959 0.0196797 0.0196637 0.019648 0.0196326 0.0196177 0.0196034 0.0195898 0.019577 0.0195651 0.0195542 0.0195444 0.0195359 0.0195287 0.0195228 0.0195185 0.0195157 0.0195145 0.0195149 0.0195171 0.0195209 0.0195265 0.0195338 0.0195427 0.0195534 0.0195656 0.0195795 0.0195948 0.0196116 0.0196298 0.0196494 0.0196701 0.019692 0.0197149 0.0197388 0.0197636 0.0197891 0.0198154 0.0198424 0.0198699 0.019898 0.0199265 0.0199556 0.019985 0.020015 0.0200454 0.0200763 0.0201077 0.0201397 0.0201724 0.0202058 0.02024 0.020275 0.0203108 0.0203477 0.0203854 0.020424 0.0204635 0.0205037 0.0205445 0.0205857 0.0206269 0.0206678 0.0207079 0.0207469 0.0207839 0.0208184 0.0208496 0.0208766 0.0208985 0.0209143 0.0209228 0.020923 0.0209136 0.0208936 0.0208616 0.0208166 0.0207573 0.0206827 0.0205915 0.0204827 0.0203552 0.0202079 0.0200396 0.0198492 0.0196358 0.0193977 0.0191316 0.0188348 0.0185126 0.0181953 0.0179447 0.0178035 0.0176681 0.0172092 0.0166067 0.0160506 0.0154812 0.0148741 0.0142298 0.0135104 0.0127096 0.011817 0.0109356 0.00993965 0.00910742 0.00857575 0.00742558 0.00611924 0.00478254 0.00337648 0.00195251 0.00044405 -0.000630217 0 0 0 0 0 0 0 0 0 0 0 0 0 0 0 0 0 0 0 0 0 0 0 0 0 0 0 0 0 0 0 0 0 0 0 0 0 0 0 0 0 0 0 0 0 0 0 0 0 0 0 0 0 0 0 0 0 0 0 0 0 0 0 0 0 0 0 0 0 0 0 0 0 0 0 0 0 0 0 0 0 0 0 0 0 0 0 0 0 0 0 0 0 0 0 0 0 0 0 0 0 0 0 0 0 0 0 0 0 0 0 0 0 0 0 0 0 0 0 0 0 0 0 0 0 0 0 0 0 0 0 0 0 0 0 0 0 0 0 0 0 0 0 0 0 0 0 0 0 0 0 0 0 0 0 0 0 0 0 0 0 0 0 0 0 0 0 0 0 0 0 0 0 0 0 0 0 0 0 0 0 0 0 0 0 0 0 0 0 0 0 0 0 0 0 0 0 0 0 0 0 0 0 0 0 0 0 0 0 0 0 0 0 0 0 0 0 0 0 0 0 0 0 0 0 0 0 0 0 0 0 0 0 0 0 0 0 0 0 0 0 0 0 0 0 0 0 0 0 0 0 0 0 0 0 0 0 0 0 0 0 0 0 0 0 0 0 0 0 0 0 0 0 0 0 0 0 0 0 0 0 0 0 0 0 0 0 0 0 0 0 0 0 0 0 0 0 0 0 0 0 0 0 0 0 0 0 0 0 0 0 0 0 0 0 0 0 0 0 0 0 0 0 0 0 0 0 0 0 0 0 0 0 0 0 0 0 0 0 0 0 0 0 0 0 0 0 0 0 0 0 0 0 0 0 0 0 0 0 0 0 0 1.0842e-19 
0.02 0.02 0.02 0.02 0.02 0.02 0.02 0.02 0.02 0.02 0.02 0.02 0.02 0.02 0.02 0.02 0.02 0.02 0.02 0.02 0.02 0.02 0.02 0.02 0.02 0.02 0.02 0.02 0.02 0.02 0.02 0.02 0.02 0.02 0.02 0.02 0.02 0.02 0.02 0.02 0.02 0.02 0.02 0.02 0.02 0.02 0.02 0.02 0.02 0.02 0.02 0.02 0.02 0.02 0.02 0.02 0.02 0.0200001 0.0200001 0.0200001 0.0200001 0.0200001 0.0200001 0.0200001 0.0200001 0.0200001 0.0200001 0.0200001 0.0200001 0.0200001 0.0200001 0.0200001 0.02 0.02 0.02 0.02 0.02 0.02 0.0199999 0.0199999 0.0199998 0.0199998 0.0199997 0.0199997 0.0199996 0.0199995 0.0199994 0.0199993 0.0199991 0.019999 0.0199988 0.0199986 0.0199984 0.0199982 0.0199979 0.0199976 0.0199972 0.0199968 0.0199964 0.0199959 0.0199954 0.0199947 0.0199941 0.0199933 0.0199924 0.0199915 0.0199904 0.0199892 0.0199879 0.0199864 0.0199848 0.019983 0.019981 0.0199788 0.0199764 0.0199737 0.0199708 0.0199675 0.0199639 0.01996 0.0199558 0.0199511 0.019946 0.0199405 0.0199344 0.0199279 0.0199209 0.0199133 0.0199051 0.0198964 0.019887 0.0198771 0.0198665 0.0198552 0.0198434 0.0198309 0.0198179 0.0198043 0.0197901 0.0197754 0.0197603 0.0197447 0.0197289 0.0197128 0.0196966 0.0196805 0.0196644 0.0196487 0.0196332 0.0196183 0.0196039 0.0195903 0.0195774 0.0195654 0.0195544 0.0195446 0.0195359 0.0195285 0.0195226 0.0195181 0.0195151 0.0195137 0.019514 0.0195159 0.0195195 0.0195248 0.0195318 0.0195405 0.0195508 0.0195628 0.0195763 0.0195913 0.0196078 0.0196257 0.0196448 0.0196652 0.0196867 0.0197093 0.0197328 0.0197572 0.0197823 0.0198082 0.0198348 0.0198619 0.0198895 0.0199176 0.0199462 0.0199751 0.0200046 0.0200344 0.0200648 0.0200956 0.020127 0.0201589 0.0201916 0.020225 0.0202591 0.0202941 0.02033 0.0203667 0.0204043 0.0204426 0.0204816 0.0205212 0.020561 0.0206008 0.0206403 0.020679 0.0207165 0.0207521 0.0207851 0.0208148 0.0208403 0.0208607 0.0208751 0.0208822 0.0208811 0.0208706 0.0208495 0.0208165 0.0207706 0.0207107 0.0206354 0.0205438 0.0204347 0.0203071 0.0201597 0.0199915 0.0198013 0.0195883 0.0193512 0.0190877 0.0187959 0.0184848 0.0181822 0.0179337 0.0177301 0.0174843 0.0170718 0.0165508 0.0160023 0.0154367 0.0148209 0.0141655 0.0134326 0.0126342 0.0117855 0.010946 0.0100712 0.0091014 0.00830983 0.0072204 0.00600735 0.0047029 0.00334884 0.0019657 0.000571558 -0.000995905 -0.00269886 -0.00453569 -0.00640421 -0.00875292 -0.0103619 0 0 0 0 0 0 0 0 0 0 0 0 0 0 0 0 0 0 0 0 0 0 0 0 0 0 0 0 0 0 0 0 0 0 0 0 0 0 0 0 0 0 0 0 0 0 0 0 0 0 0 0 0 0 0 0 0 0 0 0 0 0 0 0 0 0 0 0 0 0 0 0 0 0 0 0 0 0 0 0 0 0 0 0 0 0 0 0 0 0 0 0 0 0 0 0 0 0 0 0 0 0 0 0 0 0 0 0 0 0 0 0 0 0 0 0 0 0 0 0 0 0 0 0 0 0 0 0 0 0 0 0 0 0 0 0 0 0 0 0 0 0 0 0 0 0 0 0 0 0 0 0 0 0 0 0 0 0 0 0 0 0 0 0 0 0 0 0 0 0 0 0 0 0 0 0 0 0 0 0 0 0 0 0 0 0 0 0 0 0 0 0 0 0 0 0 0 0 0 0 0 0 0 0 0 0 0 0 0 0 0 0 0 0 0 0 0 0 0 0 0 0 0 0 0 0 0 0 0 0 0 0 0 0 0 0 0 0 0 0 0 0 0 0 0 0 0 0 0 0 0 0 0 0 0 0 0 0 0 0 0 0 0 0 0 0 0 0 0 0 0 0 0 0 0 0 0 0 0 0 0 0 0 0 0 0 0 0 0 0 0 0 0 0 0 0 0 0 0 0 0 0 0 0 0 0 0 0 0 0 0 0 0 0 0 0 0 0 0 0 0 0 0 0 0 0 0 0 0 0 0 0 0 0 0 0 0 0 0 0 0 0 0 0 0 0 0 0 0 0 0 0 0 0 0 0 0 -3.25261e-19 
0.02 0.02 0.02 0.02 0.02 0.02 0.02 0.02 0.02 0.02 0.02 0.02 0.02 0.02 0.02 0.02 0.02 0.02 0.02 0.02 0.02 0.02 0.02 0.02 0.02 0.02 0.02 0.02 0.02 0.02 0.02 0.02 0.02 0.02 0.02 0.02 0.02 0.02 0.02 0.02 0.02 0.02 0.02 0.02 0.02 0.02 0.02 0.02 0.02 0.02 0.02 0.02 0.02 0.02 0.02 0.02 0.02 0.02 0.02 0.02 0.0200001 0.0200001 0.0200001 0.0200001 0.0200001 0.0200001 0.0200001 0.0200001 0.0200001 0.02 0.02 0.02 0.02 0.02 0.02 0.02 0.0199999 0.0199999 0.0199999 0.0199998 0.0199998 0.0199997 0.0199997 0.0199996 0.0199995 0.0199994 0.0199993 0.0199992 0.019999 0.0199989 0.0199987 0.0199985 0.0199982 0.019998 0.0199977 0.0199974 0.019997 0.0199966 0.0199962 0.0199957 0.0199951 0.0199945 0.0199938 0.019993 0.0199921 0.0199911 0.01999 0.0199888 0.0199875 0.019986 0.0199844 0.0199826 0.0199806 0.0199784 0.0199759 0.0199732 0.0199703 0.019967 0.0199634 0.0199595 0.0199553 0.0199506 0.0199455 0.01994 0.019934 0.0199275 0.0199205 0.0199129 0.0199048 0.0198961 0.0198868 0.0198769 0.0198664 0.0198553 0.0198435 0.0198312 0.0198182 0.0198047 0.0197907 0.0197761 0.0197611 0.0197457 0.0197299 0.0197139 0.0196978 0.0196816 0.0196656 0.0196498 0.0196343 0.0196193 0.0196049 0.0195911 0.0195781 0.0195661 0.019555 0.019545 0.0195362 0.0195286 0.0195225 0.0195178 0.0195146 0.0195129 0.0195129 0.0195145 0.0195178 0.0195228 0.0195294 0.0195377 0.0195477 0.0195592 0.0195723 0.0195869 0.0196029 0.0196203 0.019639 0.0196588 0.0196798 0.0197019 0.0197249 0.0197488 0.0197734 0.0197988 0.0198248 0.0198513 0.0198784 0.019906 0.0199339 0.0199623 0.0199911 0.0200203 0.0200499 0.02008 0.0201106 0.0201418 0.0201735 0.020206 0.0202391 0.020273 0.0203077 0.0203431 0.0203794 0.0204163 0.0204538 0.0204917 0.0205299 0.020568 0.0206057 0.0206426 0.0206782 0.0207118 0.0207429 0.0207707 0.0207944 0.0208129 0.0208255 0.0208309 0.0208282 0.0208162 0.0207937 0.0207595 0.0207126 0.0206517 0.0205757 0.0204835 0.0203741 0.0202462 0.0200987 0.0199305 0.0197405 0.0195279 0.0192924 0.0190334 0.0187503 0.0184512 0.0181579 0.0178917 0.0176419 0.0173464 0.0169487 0.0164667 0.0159368 0.015373 0.0147575 0.0140932 0.0133614 0.0125746 0.0117518 0.0109256 0.0100965 0.00921287 0.00820151 0.00708149 0.00589073 0.00462172 0.00328481 0.00189824 0.000450486 -0.00111359 -0.00277987 -0.00451421 -0.00635104 -0.00841396 -0.010512 -0.0127021 -0.0147883 -0.0174333 -0.0217879 0 0 0 0 0 0 0 0 0 0 0 0 0 0 0 0 0 0 0 0 0 0 0 0 0 0 0 0 0 0 0 0 0 0 0 0 0 0 0 0 0 0 0 0 0 0 0 0 0 0 0 0 0 0 0 0 0 0 0 0 0 0 0 0 0 0 0 0 0 0 0 0 0 0 0 0 0 0 0 0 0 0 0 0 0 0 0 0 0 0 0 0 0 0 0 0 0 0 0 0 0 0 0 0 0 0 0 0 0 0 0 0 0 0 0 0 0 0 0 0 0 0 0 0 0 0 0 0 0 0 0 0 0 0 0 0 0 0 0 0 0 0 0 0 0 0 0 0 0 0 0 0 0 0 0 0 0 0 0 0 0 0 0 0 0 0 0 0 0 0 0 0 0 0 0 0 0 0 0 0 0 0 0 0 0 0 0 0 0 0 0 0 0 0 0 0 0 0 0 0 0 0 0 0 0 0 0 0 0 0 0 0 0 0 0 0 0 0 0 0 0 0 0 0 0 0 0 0 0 0 0 0 0 0 0 0 0 0 0 0 0 0 0 0 0 0 0 0 0 0 0 0 0 0 0 0 0 0 0 0 0 0 0 0 0 0 0 0 0 0 0 0 0 0 0 0 0 0 0 0 0 0 0 0 0 0 0 0 0 0 0 0 0 0 0 0 0 0 0 0 0 0 0 0 0 0 0 0 0 0 0 0 0 0 0 0 0 0 0 0 0 0 0 0 0 0 0 0 0 0 0 0 0 0 0 0 0 0 0 0 0 0 0 0 0 0 0 0 0 0 0 0 -0.00525906 -6.50521e-19 
0.02 0.02 0.02 0.02 0.02 0.02 0.02 0.02 0.02 0.02 0.02 0.02 0.02 0.02 0.02 0.02 0.02 0.02 0.02 0.02 0.02 0.02 0.02 0.02 0.02 0.02 0.02 0.02 0.02 0.02 0.02 0.02 0.02 0.02 0.02 0.02 0.02 0.02 0.02 0.02 0.02 0.02 0.02 0.02 0.02 0.02 0.02 0.02 0.02 0.02 0.02 0.02 0.02 0.02 0.02 0.02 0.02 0.02 0.02 0.02 0.02 0.02 0.02 0.02 0.02 0.02 0.02 0.02 0.02 0.02 0.02 0.02 0.02 0.02 0.0199999 0.0199999 0.0199999 0.0199999 0.0199998 0.0199998 0.0199997 0.0199996 0.0199996 0.0199995 0.0199994 0.0199993 0.0199992 0.019999 0.0199989 0.0199987 0.0199985 0.0199983 0.0199981 0.0199978 0.0199975 0.0199972 0.0199968 0.0199964 0.0199959 0.0199954 0.0199948 0.0199942 0.0199935 0.0199927 0.0199918 0.0199908 0.0199897 0.0199885 0.0199871 0.0199856 0.019984 0.0199822 0.0199801 0.0199779 0.0199755 0.0199728 0.0199698 0.0199665 0.019963 0.0199591 0.0199548 0.0199501 0.0199451 0.0199396 0.0199336 0.0199271 0.0199202 0.0199126 0.0199046 0.0198959 0.0198867 0.0198769 0.0198664 0.0198554 0.0198437 0.0198315 0.0198187 0.0198053 0.0197914 0.019777 0.0197622 0.0197469 0.0197313 0.0197154 0.0196994 0.0196833 0.0196673 0.0196514 0.0196359 0.0196209 0.0196064 0.0195925 0.0195794 0.0195672 0.019556 0.0195458 0.0195368 0.0195291 0.0195227 0.0195177 0.0195142 0.0195123 0.0195119 0.0195131 0.019516 0.0195206 0.0195268 0.0195346 0.019544 0.019555 0.0195675 0.0195815 0.019597 0.0196138 0.0196318 0.0196511 0.0196714 0.0196929 0.0197152 0.0197384 0.0197624 0.0197871 0.0198125 0.0198384 0.0198648 0.0198916 0.0199189 0.0199465 0.0199746 0.020003 0.0200318 0.020061 0.0200907 0.0201208 0.0201515 0.0201828 0.0202148 0.0202474 0.0202807 0.0203146 0.0203493 0.0203845 0.0204202 0.0204563 0.0204924 0.0205285 0.020564 0.0205987 0.020632 0.0206634 0.0206921 0.0207176 0.020739 0.0207553 0.0207657 0.0207691 0.0207645 0.0207507 0.0207265 0.0206909 0.0206427 0.0205808 0.020504 0.0204112 0.0203013 0.0201731 0.0200255 0.0198574 0.0196677 0.0194559 0.0192225 0.0189691 0.0186974 0.0184118 0.0181246 0.0178438 0.0175602 0.0172327 0.0168357 0.0163722 0.0158566 0.0152954 0.0146819 0.0140148 0.0132911 0.0125192 0.0117123 0.0108855 0.0100315 0.00911482 0.00809713 0.00698195 0.00579083 0.00452894 0.00319995 0.00179516 0.00032498 -0.0012475 -0.00288824 -0.00462131 -0.00648156 -0.00846649 -0.0104973 -0.0126087 -0.0143834 -0.016884 -0.0199505 -0.022346 -0.0246146 -0.0269268 -0.0326393 -0.0327666 0 0 0 0 0 0 0 0 0 0 0 0 0 0 0 0 0 0 0 0 0 0 0 0 0 0 0 0 0 0 0 0 0 0 0 0 0 0 0 0 0 0 0 0 0 0 0 0 0 0 0 0 0 0 0 0 0 0 0 0 0 0 0 0 0 0 0 0 0 0 0 0 0 0 0 0 0 0 0 0 0 0 0 0 0 0 0 0 0 0 0 0 0 0 0 0 0 0 0 0 0 0 0 0 0 0 0 0 0 0 0 0 0 0 0 0 0 0 0 0 0 0 0 0 0 0 0 0 0 0 0 0 0 0 0 0 0 0 0 0 0 0 0 0 0 0 0 0 0 0 0 0 0 0 0 0 0 0 0 0 0 0 0 0 0 0 0 0 0 0 0 0 0 0 0 0 0 0 0 0 0 0 0 0 0 0 0 0 0 0 0 0 0 0 0 0 0 0 0 0 0 0 0 0 0 0 0 0 0 0 0 0 0 0 0 0 0 0 0 0 0 0 0 0 0 0 0 0 0 0 0 0 0 0 0 0 0 0 0 0 0 0 0 0 0 0 0 0 0 0 0 0 0 0 0 0 0 0 0 0 0 0 0 0 0 0 0 0 0 0 0 0 0 0 0 0 0 0 0 0 0 0 0 0 0 0 0 0 0 0 0 0 0 0 0 0 0 0 0 0 0 0 0 0 0 0 0 0 0 0 0 0 0 0 0 0 0 0 0 0 0 0 0 0 0 0 0 0 0 0 0 0 0 0 0 0 0 0 0 0 0 0 0 0 0 -0.0243269 -0.0173839 -0.00902881 -1.30104e-18 
0.02 0.02 0.02 0.02 0.02 0.02 0.02 0.02 0.02 0.02 0.02 0.02 0.02 0.02 0.02 0.02 0.02 0.02 0.02 0.02 0.02 0.02 0.02 0.02 0.02 0.02 0.02 0.02 0.02 0.02 0.02 0.02 0.02 0.02 0.02 0.02 0.02 0.02 0.02 0.02 0.02 0.02 0.02 0.02 0.02 0.02 0.02 0.02 0.02 0.02 0.02 0.02 0.02 0.02 0.02 0.02 0.02 0.02 0.02 0.02 0.02 0.02 0.02 0.02 0.02 0.02 0.02 0.02 0.02 0.02 0.02 0.02 0.02 0.0199999 0.0199999 0.0199999 0.0199998 0.0199998 0.0199998 0.0199997 0.0199996 0.0199996 0.0199995 0.0199994 0.0199993 0.0199992 0.0199991 0.0199989 0.0199988 0.0199986 0.0199984 0.0199982 0.0199979 0.0199976 0.0199973 0.019997 0.0199966 0.0199962 0.0199957 0.0199951 0.0199945 0.0199939 0.0199932 0.0199923 0.0199914 0.0199904 0.0199893 0.0199881 0.0199867 0.0199852 0.0199836 0.0199817 0.0199797 0.0199775 0.019975 0.0199723 0.0199694 0.0199661 0.0199626 0.0199587 0.0199544 0.0199498 0.0199447 0.0199393 0.0199333 0.0199269 0.01992 0.0199125 0.0199045 0.0198959 0.0198867 0.019877 0.0198666 0.0198557 0.0198441 0.019832 0.0198193 0.0198061 0.0197923 0.0197781 0.0197635 0.0197484 0.019733 0.0197173 0.0197014 0.0196854 0.0196694 0.0196536 0.0196381 0.019623 0.0196084 0.0195945 0.0195813 0.0195689 0.0195575 0.0195472 0.019538 0.01953 0.0195233 0.019518 0.0195142 0.0195119 0.0195111 0.0195119 0.0195143 0.0195183 0.0195239 0.0195312 0.01954 0.0195503 0.0195622 0.0195755 0.0195902 0.0196063 0.0196236 0.0196421 0.0196617 0.0196823 0.0197039 0.0197263 0.0197495 0.0197734 0.0197979 0.019823 0.0198486 0.0198746 0.019901 0.0199278 0.0199549 0.0199824 0.0200103 0.0200385 0.0200671 0.0200961 0.0201256 0.0201556 0.0201862 0.0202173 0.020249 0.0202812 0.020314 0.0203473 0.020381 0.0204148 0.0204487 0.0204823 0.0205154 0.0205474 0.0205781 0.0206068 0.0206328 0.0206556 0.0206743 0.0206881 0.020696 0.020697 0.0206902 0.0206743 0.0206484 0.0206112 0.0205616 0.0204985 0.0204208 0.0203274 0.020217 0.0200886 0.019941 0.0197731 0.0195838 0.0193732 0.0191425 0.0188948 0.0186339 0.0183622 0.0180816 0.0177926 0.0174824 0.0171366 0.0167357 0.0162785 0.0157693 0.0152097 0.0145976 0.0139329 0.0132181 0.0124596 0.0116618 0.0108299 0.00995194 0.00901174 0.00798554 0.0068728 0.00568268 0.00442118 0.0030894 0.00168033 0.000185324 -0.00139036 -0.00304673 -0.00478535 -0.00666131 -0.00858879 -0.0106129 -0.0127099 -0.0147695 -0.0168566 -0.0196604 -0.0219102 -0.0241928 -0.0265137 -0.0297547 -0.0328081 -0.0347809 -0.0365579 -0.0388231 -0.0467621 0 0 0 0 0 0 0 0 0 0 0 0 0 0 0 0 0 0 0 0 0 0 0 0 0 0 0 0 0 0 0 0 0 0 0 0 0 0 0 0 0 0 0 0 0 0 0 0 0 0 0 0 0 0 0 0 0 0 0 0 0 0 0 0 0 0 0 0 0 0 0 0 0 0 0 0 0 0 0 0 0 0 0 0 0 0 0 0 0 0 0 0 0 0 0 0 0 0 0 0 0 0 0 0 0 0 0 0 0 0 0 0 0 0 0 0 0 0 0 0 0 0 0 0 0 0 0 0 0 0 0 0 0 0 0 0 0 0 0 0 0 0 0 0 0 0 0 0 0 0 0 0 0 0 0 0 0 0 0 0 0 0 0 0 0 0 0 0 0 0 0 0 0 0 0 0 0 0 0 0 0 0 0 0 0 0 0 0 0 0 0 0 0 0 0 0 0 0 0 0 0 0 0 0 0 0 0 0 0 0 0 0 0 0 0 0 0 0 0 0 0 0 0 0 0 0 0 0 0 0 0 0 0 0 0 0 0 0 0 0 0 0 0 0 0 0 0 0 0 0 0 0 0 0 0 0 0 0 0 0 0 0 0 0 0 0 0 0 0 0 0 0 0 0 0 0 0 0 0 0 0 0 0 0 0 0 0 0 0 0 0 0 0 0 0 0 0 0 0 0 0 0 0 0 0 0 0 0 0 0 0 0 0 0 0 0 0 0 0 0 0 0 0 0 0 0 0 0 0 0 0 0 0 0 0 0 0 0 0 -0.0382979 -0.035032 -0.0286803 -0.0206291 -0.0113808 -1.95156e-18 
0.02 0.02 0.02 0.02 0.02 0.02 0.02 0.02 0.02 0.02 0.02 0.02 0.02 0.02 0.02 0.02 0.02 0.02 0.02 0.02 0.02 0.02 0.02 0.02 0.02 0.02 0.02 0.02 0.02 0.02 0.02 0.02 0.02 0.02 0.02 0.02 0.02 0.02 0.02 0.02 0.02 0.02 0.02 0.02 0.02 0.02 0.02 0.02 0.02 0.02 0.02 0.02 0.02 0.02 0.02 0.02 0.02 0.02 0.02 0.02 0.02 0.02 0.02 0.02 0.02 0.02 0.02 0.02 0.02 0.02 0.02 0.0199999 0.0199999 0.0199999 0.0199999 0.0199998 0.0199998 0.0199997 0.0199997 0.0199996 0.0199996 0.0199995 0.0199994 0.0199993 0.0199992 0.0199991 0.019999 0.0199988 0.0199986 0.0199985 0.0199982 0.019998 0.0199978 0.0199975 0.0199971 0.0199968 0.0199964 0.0199959 0.0199954 0.0199949 0.0199943 0.0199936 0.0199929 0.019992 0.0199911 0.0199901 0.019989 0.0199878 0.0199864 0.0199849 0.0199832 0.0199814 0.0199794 0.0199771 0.0199747 0.019972 0.019969 0.0199658 0.0199622 0.0199583 0.0199541 0.0199495 0.0199445 0.0199391 0.0199332 0.0199268 0.0199199 0.0199125 0.0199046 0.0198961 0.019887 0.0198773 0.0198671 0.0198562 0.0198448 0.0198328 0.0198203 0.0198072 0.0197936 0.0197795 0.019765 0.0197502 0.019735 0.0197195 0.0197038 0.019688 0.0196721 0.0196564 0.0196409 0.0196258 0.0196112 0.0195971 0.0195838 0.0195713 0.0195597 0.0195492 0.0195397 0.0195315 0.0195245 0.0195189 0.0195147 0.0195119 0.0195106 0.0195109 0.0195128 0.0195162 0.0195212 0.0195278 0.0195358 0.0195455 0.0195565 0.019569 0.0195829 0.0195981 0.0196145 0.0196321 0.0196508 0.0196705 0.0196911 0.0197126 0.0197348 0.0197578 0.0197813 0.0198054 0.01983 0.019855 0.0198805 0.0199062 0.0199323 0.0199587 0.0199855 0.0200125 0.0200399 0.0200677 0.0200958 0.0201243 0.0201533 0.0201828 0.0202127 0.020243 0.0202737 0.0203048 0.0203361 0.0203675 0.0203988 0.0204297 0.0204599 0.020489 0.0205167 0.0205423 0.0205653 0.020585 0.0206007 0.0206116 0.0206167 0.0206151 0.0206058 0.0205877 0.0205597 0.0205208 0.0204698 0.0204055 0.0203269 0.0202328 0.0201221 0.0199935 0.019846 0.0196785 0.0194901 0.0192811 0.0190533 0.0188105 0.0185573 0.0182957 0.0180223 0.0177305 0.017412 0.017052 0.0166438 0.0161852 0.0156766 0.0151175 0.0145073 0.0138471 0.0131399 0.0123904 0.0115987 0.0107616 0.00987043 0.00891047 0.00787393 0.00675887 0.00556754 0.00430258 0.00296281 0.00154579 4.34749e-05 -0.00154435 -0.00321867 -0.00497606 -0.0068241 -0.00878057 -0.0107743 -0.0128706 -0.0150618 -0.0173783 -0.0196972 -0.0219736 -0.0242498 -0.0268257 -0.0294597 -0.0321442 -0.0341955 -0.0361736 -0.0385605 -0.0421182 -0.0451446 -0.0465279 -0.0477207 -0.0482172 -0.0503365 -0.0536978 -0.0629744 0 0 0 0 0 0 0 0 0 0 0 0 0 0 0 0 0 0 0 0 0 0 0 0 0 0 0 0 0 0 0 0 0 0 0 0 0 0 0 0 0 0 0 0 0 0 0 0 0 0 0 0 0 0 0 0 0 0 0 0 0 0 0 0 0 0 0 0 0 0 0 0 0 0 0 0 0 0 0 0 0 0 0 0 0 0 0 0 0 0 0 0 0 0 0 0 0 0 0 0 0 0 0 0 0 0 0 0 0 0 0 0 0 0 0 0 0 0 0 0 0 0 0 0 0 0 0 0 0 0 0 0 0 0 0 0 0 0 0 0 0 0 0 0 0 0 0 0 0 0 0 0 0 0 0 0 0 0 0 0 0 0 0 0 0 0 0 0 0 0 0 0 0 0 0 0 0 0 0 0 0 0 0 0 0 0 0 0 0 0 0 0 0 0 0 0 -0.0451703 -0.0497428 -0.0516727 -0.0524819 -0.0528368 -0.052996 -0.0530637 -0.0530911 -0.0531032 -0.0531122 -0.0531238 -0.0531407 -0.0531639 -0.053194 -0.053231 -0.0532744 -0.053324 -0.0533792 -0.0534394 -0.0535038 -0.0535718 -0.0536424 -0.0537149 -0.0537883 -0.053862 -0.0539352 -0.0540074 -0.0540785 -0.0541484 -0.0542173 -0.0542854 -0.0543531 -0.0544203 -0.0544869 -0.0545523 -0.0546157 -0.0546761 -0.0547327 -0.0547852 -0.0548364 -0.0549015 -0.0550154 -0.0554279 -0.058404 -0.0559591 0 0 0 0 0 0 0 0 0 0 0 0 0 0 0 0 0 0 0 0 0 0 0 0 0 0 0 0 0 0 0 0 0 0 0 0 0 0 0 0 0 0 0 0 0 0 0 0 0 0 0 0 0 0 0 0 0 0 0 0 0 0 0 0 0 0 0 0 0 0 0 0 0 -0.0475062 -0.0527489 -0.0540348 -0.0528926 -0.0528787 -0.0527762 -0.0526598 -0.0525496 -0.0524453 -0.052339 -0.0522181 -0.0520633 -0.0518318 -0.0513583 -0.0503026 -0.0488296 -0.0471702 -0.044819 -0.0411062 -0.0362495 -0.0299548 -0.0222498 -0.0127245 -3.25261e-18 