# vtk DataFile Version 2.0
iteration 2754
ASCII

DATASET STRUCTURED_POINTS
DIMENSIONS 621 64 1
ORIGIN 0 0 0
SPACING 0.00161031 0.00161031 0.00161031

POINT_DATA 39744
SCALARS P float 1
LOOKUP_TABLE default
0 0 0 0 0 0 0 0 0 0 0 0 0 0 0 0 0 0 0 0 0 0 0 0 0 0 0 0 0 0 0 0 0 0 0 0 0 0 0 0 0 0 0 0 0 0 0 0 0 0 0 0 0 0 0 0 0 0 0 0 0 0 0 0 0 0 0 0 0 0 0 0 0 0 0 0 0 0 0 0 0 0 0 0 0 0 0 0 0 0 0 0 0 0 0 0 0 0 0 0 0 0 0 0 0 0 0 0 0 0 0 0 0 0 0 0 0 0 0 0 0 0 0 0 0 0 0 0 0 0 0 0 0 0 0 0 0 0 0 0 0 0 0 0 0 0 0 0 0 0 0 0 0 0 0 0 0 0 0 0 0 0 0 0 0 0 0 0 0 0 0 0 0 0 0 0 0 0 0 0 0 0 0 0 0 0 0 0 0 0 0 0 0 0 0 0 0 0 0 0 0 0 0 0 0 0 0 0 0 0 0 0 0 0 0 0 0 0 0 0 0 0 0 0 0 0 0 0 0 0 0 0 0 0 0 0 0 0 0 0 0 0 0 0 0 0 0 0 0 0 0 0 0 0 0 0 0 0 0 0 0 0 0 0 0 0 0 0 0 0 0 0 0 0 0 0 0 0 0 0 0 0 0 0 0 0 0 0 0 0 0 0 0 0 0 0 0 0 0 0 0 0 0 0 0 0 0 0 0 0 0 0 0 0 0 0 0 0 0 0 0 0 0 0 0 0 0 0 0 0 0 0 0 0 0 0 0 0 0 0 0 0 0 0 0 0 0 0 0 0 0 0 0 0 0 0 0 0 0 0 0 0 0 0 0 0 0 0 0 0 0 0 0 0 0 0 0 0 0 0 0 0 0 0 0 0 0 0 0 0 0 0 0 0 0 0 0 0 0 0 0 0 0 0 0 0 0 0 0 0 0 0 0 0 0 0 0 0 0 0 0 0 0 0 0 0 0 0 0 0 0 0 0 0 0 0 0 0 0 0 0 0 0 0 0 0 0 0 0 0 0 0 0 0 0 0 0 0 0 0 0 0 0 0 0 0 0 0 0 0 0 0 0 0 0 0 0 0 0 0 0 0 0 0 0 0 0 0 0 0 0 0 0 0 0 0 0 0 0 0 0 0 0 0 0 0 0 0 0 0 0 0 0 0 0 0 0 0 0 0 0 0 0 0 0 0 0 0 0 0 0 0 0 0 0 0 0 0 0 0 0 0 0 0 0 0 0 0 0 0 0 0 0 0 0 0 0 0 0 0 0 0 0 0 0 0 0 0 0 0 0 0 0 0 0 0 0 0 0 0 0 0 0 0 0 0 0 0 0 0 0 0 0 0 0 0 0 0 0 0 0 0 0 0 0 0 0 0 0 0 0 0 0 0 0 0 0 0 0 0 0 
0.019798 0.0197598 0.0196866 0.0196325 0.0195788 0.0195256 0.0194727 0.0194203 0.0193684 0.019317 0.0192663 0.0192163 0.0191669 0.0191184 0.0190707 0.0190239 0.018978 0.0189331 0.0188892 0.0188463 0.0188045 0.0187639 0.0187244 0.018686 0.0186489 0.0186131 0.0185785 0.0185452 0.0185133 0.0184828 0.0184536 0.0184258 0.0183995 0.0183746 0.0183512 0.0183293 0.0183089 0.0182901 0.0182727 0.0182569 0.0182427 0.01823 0.0182189 0.0182094 0.0182014 0.018195 0.0181902 0.018187 0.0181853 0.0181852 0.0181866 0.0181895 0.018194 0.0182 0.0182075 0.0182165 0.0182269 0.0182388 0.0182521 0.0182668 0.018283 0.0183004 0.0183193 0.0183394 0.0183608 0.0183835 0.0184074 0.0184324 0.0184587 0.018486 0.0185145 0.018544 0.0185745 0.0186059 0.0186382 0.0186715 0.0187055 0.0187404 0.0187759 0.0188122 0.0188491 0.0188867 0.0189249 0.0189636 0.0190028 0.0190425 0.0190827 0.0191233 0.0191644 0.0192058 0.0192477 0.0192898 0.0193324 0.0193752 0.0194183 0.0194617 0.0195054 0.0195493 0.0195934 0.0196377 0.0196821 0.0197266 0.0197712 0.0198158 0.01986 0.0199032 0.0199439 0.0199791 0.0200057 0.020036 0.0200713 0.0201084 0.0201466 0.0201855 0.0202247 0.0202642 0.0203038 0.0203435 0.0203831 0.0204227 0.0204622 0.0205014 0.0205405 0.0205792 0.0206176 0.0206557 0.0206933 0.0207305 0.0207672 0.0208033 0.0208389 0.020874 0.0209083 0.020942 0.020975 0.0210073 0.0210389 0.0210696 0.0210995 0.0211286 0.0211569 0.0211842 0.0212107 0.0212362 0.0212608 0.0212845 0.0213071 0.0213288 0.0213495 0.0213691 0.0213877 0.0214053 0.0214219 0.0214373 0.0214518 0.0214651 0.0214774 0.0214886 0.0214987 0.0215078 0.0215158 0.0215227 0.0215285 0.0215333 0.021537 0.0215397 0.0215413 0.0215419 0.0215414 0.0215399 0.0215375 0.021534 0.0215296 0.0215242 0.0215179 0.0215106 0.0215024 0.0214933 0.0214834 0.0214726 0.021461 0.0214485 0.0214353 0.0214214 0.0214067 0.0213913 0.0213752 0.0213584 0.021341 0.0213231 0.0213045 0.0212854 0.0212658 0.0212457 0.0212252 0.0212042 0.0211829 0.0211612 0.0211391 0.0211168 0.0210942 0.0210713 0.0210483 0.0210251 0.0210017 0.0209782 0.0209546 0.020931 0.0209073 0.0208837 0.0208601 0.0208365 0.020813 0.0207896 0.0207664 0.0207433 0.0207204 0.0206977 0.0206753 0.0206531 0.0206311 0.0206095 0.0205882 0.0205671 0.0205465 0.0205261 0.0205062 0.0204866 0.0204675 0.0204487 0.0204304 0.0204125 0.020395 0.0203779 0.0203613 0.0203452 0.0203295 0.0203143 0.0202995 0.0202852 0.0202713 0.0202579 0.0202449 0.0202324 0.0202204 0.0202088 0.0201976 0.0201869 0.0201766 0.0201667 0.0201572 0.0201481 0.0201395 0.0201312 0.0201233 0.0201157 0.0201086 0.0201017 0.0200952 0.0200891 0.0200833 0.0200777 0.0200725 0.0200675 0.0200629 0.0200585 0.0200543 0.0200504 0.0200467 0.0200433 0.0200401 0.020037 0.0200342 0.0200316 0.0200291 0.0200268 0.0200246 0.0200226 0.0200208 0.0200191 0.0200175 0.020016 0.0200146 0.0200134 0.0200122 0.0200111 0.0200101 0.0200092 0.0200084 0.0200077 0.020007 0.0200063 0.0200058 0.0200052 0.0200048 0.0200043 0.0200039 0.0200036 0.0200033 0.020003 0.0200028 0.0200025 0.0200023 0.0200022 0.020002 0.0200019 0.0200017 0.0200016 0.0200016 0.0200015 0.0200014 0.0200014 0.0200013 0.0200013 0.0200013 0.0200012 0.0200012 0.0200012 0.0200012 0.0200012 0.0200012 0.0200012 0.0200012 0.0200012 0.0200012 0.0200012 0.0200011 0.0200011 0.0200011 0.0200011 0.0200011 0.020001 0.020001 0.020001 0.0200009 0.0200008 0.0200008 0.0200007 0.0200006 0.0200005 0.0200003 0.0200002 0.02 0.0199998 0.0199996 0.0199994 0.0199992 0.0199989 0.0199986 0.0199983 0.019998 0.0199976 0.0199972 0.0199968 0.0199963 0.0199958 0.0199953 0.0199947 0.0199941 0.0199935 0.0199928 0.0199921 0.0199913 0.0199904 0.0199896 0.0199886 0.0199877 0.0199866 0.0199855 0.0199844 0.0199832 0.0199819 0.0199806 0.0199792 0.0199777 0.0199762 0.0199746 0.0199729 0.0199711 0.0199693 0.0199674 0.0199654 0.0199634 0.0199612 0.019959 0.0199567 0.0199543 0.0199518 0.0199492 0.0199466 0.0199438 0.019941 0.019938 0.019935 0.0199318 0.0199286 0.0199253 0.0199218 0.0199183 0.0199147 0.019911 0.0199071 0.0199032 0.0198991 0.019895 0.0198908 0.0198864 0.019882 0.0198774 0.0198728 0.019868 0.0198632 0.0198582 0.0198532 0.019848 0.0198427 0.0198374 0.019832 0.0198264 0.0198208 0.0198151 0.0198093 0.0198034 0.0197974 0.0197913 0.0197852 0.0197789 0.0197726 0.0197663 0.0197598 0.0197533 0.0197467 0.0197401 0.0197334 0.0197267 0.0197199 0.019713 0.0197061 0.0196992 0.0196922 0.0196853 0.0196782 0.0196712 0.0196642 0.0196571 0.01965 0.0196429 0.0196359 0.0196288 0.0196217 0.0196147 0.0196077 0.0196007 0.0195937 0.0195868 0.0195799 0.0195731 0.0195663 0.0195595 0.0195529 0.0195463 0.0195398 0.0195333 0.0195269 0.0195207 0.0195145 0.0195084 0.0195024 0.0194965 0.0194907 0.019485 0.0194795 0.0194741 0.0194688 0.0194636 0.0194586 0.0194536 0.0194489 0.0194442 0.0194398 0.0194354 0.0194312 0.0194272 0.0194233 0.0194196 0.019416 0.0194125 0.0194093 0.0194061 0.0194032 0.0194004 0.0193977 0.0193952 0.0193929 0.0193907 0.0193886 0.0193867 0.019385 0.0193834 0.019382 0.0193807 0.0193795 0.0193785 0.0193776 0.0193769 0.0193763 0.0193758 0.0193755 0.0193753 0.0193752 0.0193752 0.0193754 0.0193757 0.0193761 0.0193767 0.0193774 0.0193782 0.0193791 0.0193801 0.0193813 0.0193825 0.0193839 0.0193855 0.0193871 0.0193889 0.0193908 0.0193928 0.019395 0.0193973 0.0193997 0.0194023 0.019405 0.0194079 0.0194109 0.0194141 0.0194174 0.0194209 0.0194246 0.0194285 0.0194326 0.0194369 0.0194414 0.0194461 0.0194511 0.0194562 0.0194617 0.0194674 0.0194733 0.0194796 0.0194861 0.0194928 0.0194999 0.0195073 0.0195149 0.0195229 0.0195311 0.0195397 0.0195485 0.0195577 0.0195671 0.0195768 0.0195868 0.019597 0.0196075 0.0196181 0.019629 0.01964 0.0196511 0.0196623 0.0196736 0.0196849 0.0196961 0.0197073 0.0197183 0.0197292 0.0197397 0.01975 0.01976 0.0197695 0.0197786 0.0197871 0.019795 0.0198023 0.0198089 0.0198147 0.0198197 0.0198239 0.0198272 0.0198296 0.0198311 0.0198316 0.0198311 0.0198297 0.0198273 0.0198239 0.0198196 0.0198145 0.0198085 0.0198018 0.0197942 0.0197858 0.0197765 0.019766 0.0197539 0.0197392 0.0197207 0.0196964 0.0196635 0.0196175 0.0195508 0.0194412 0.0192423 0.0189717 0.0185844 0.0180459 0.0174743 0.0181 0 0 0 0 
0.019798 0.0197488 0.0196885 0.0196333 0.0195792 0.0195257 0.0194728 0.0194203 0.0193684 0.0193171 0.0192664 0.0192164 0.0191671 0.0191186 0.0190709 0.0190241 0.0189783 0.0189334 0.0188895 0.0188466 0.0188049 0.0187642 0.0187248 0.0186865 0.0186494 0.0186135 0.018579 0.0185457 0.0185138 0.0184832 0.0184541 0.0184263 0.0184 0.0183751 0.0183517 0.0183298 0.0183094 0.0182906 0.0182732 0.0182574 0.0182432 0.0182305 0.0182194 0.0182099 0.0182019 0.0181955 0.0181907 0.0181874 0.0181857 0.0181856 0.018187 0.0181899 0.0181944 0.0182003 0.0182078 0.0182168 0.0182272 0.0182391 0.0182524 0.0182671 0.0182832 0.0183006 0.0183194 0.0183396 0.018361 0.0183836 0.0184075 0.0184326 0.0184588 0.0184861 0.0185146 0.018544 0.0185745 0.0186059 0.0186383 0.0186715 0.0187056 0.0187404 0.018776 0.0188122 0.0188492 0.0188867 0.0189249 0.0189636 0.0190028 0.0190426 0.0190828 0.0191234 0.0191645 0.0192059 0.0192477 0.0192899 0.0193324 0.0193753 0.0194184 0.0194618 0.0195054 0.0195493 0.0195934 0.0196376 0.019682 0.0197265 0.019771 0.0198152 0.0198587 0.0199006 0.0199398 0.0199754 0.0200073 0.0200408 0.0200764 0.0201135 0.0201517 0.0201904 0.0202296 0.020269 0.0203086 0.0203482 0.0203879 0.0204274 0.0204668 0.020506 0.020545 0.0205836 0.020622 0.02066 0.0206975 0.0207346 0.0207713 0.0208073 0.0208429 0.0208778 0.0209121 0.0209457 0.0209786 0.0210108 0.0210422 0.0210729 0.0211027 0.0211317 0.0211599 0.0211871 0.0212135 0.0212389 0.0212634 0.0212869 0.0213095 0.0213311 0.0213516 0.0213712 0.0213897 0.0214071 0.0214236 0.0214389 0.0214532 0.0214665 0.0214786 0.0214897 0.0214998 0.0215087 0.0215166 0.0215234 0.0215291 0.0215338 0.0215374 0.0215399 0.0215415 0.0215419 0.0215414 0.0215398 0.0215372 0.0215337 0.0215291 0.0215236 0.0215172 0.0215098 0.0215016 0.0214924 0.0214824 0.0214715 0.0214598 0.0214472 0.021434 0.0214199 0.0214051 0.0213896 0.0213735 0.0213566 0.0213392 0.0213211 0.0213025 0.0212834 0.0212637 0.0212436 0.021223 0.021202 0.0211806 0.0211588 0.0211367 0.0211144 0.0210917 0.0210688 0.0210457 0.0210225 0.0209991 0.0209756 0.020952 0.0209284 0.0209047 0.020881 0.0208574 0.0208338 0.0208103 0.020787 0.0207637 0.0207407 0.0207178 0.0206951 0.0206727 0.0206505 0.0206286 0.020607 0.0205857 0.0205647 0.0205441 0.0205238 0.0205039 0.0204844 0.0204652 0.0204465 0.0204282 0.0204104 0.0203929 0.0203759 0.0203594 0.0203433 0.0203276 0.0203125 0.0202977 0.0202835 0.0202697 0.0202563 0.0202434 0.020231 0.020219 0.0202074 0.0201963 0.0201856 0.0201753 0.0201655 0.0201561 0.0201471 0.0201384 0.0201302 0.0201223 0.0201149 0.0201077 0.0201009 0.0200945 0.0200884 0.0200826 0.0200771 0.0200719 0.020067 0.0200623 0.020058 0.0200538 0.02005 0.0200463 0.0200429 0.0200397 0.0200367 0.0200339 0.0200313 0.0200288 0.0200265 0.0200244 0.0200224 0.0200206 0.0200189 0.0200173 0.0200158 0.0200145 0.0200132 0.0200121 0.020011 0.02001 0.0200091 0.0200083 0.0200076 0.0200069 0.0200063 0.0200057 0.0200052 0.0200047 0.0200043 0.0200039 0.0200036 0.0200033 0.020003 0.0200027 0.0200025 0.0200023 0.0200021 0.020002 0.0200019 0.0200017 0.0200016 0.0200015 0.0200015 0.0200014 0.0200014 0.0200013 0.0200013 0.0200013 0.0200012 0.0200012 0.0200012 0.0200012 0.0200012 0.0200012 0.0200012 0.0200012 0.0200012 0.0200012 0.0200012 0.0200012 0.0200011 0.0200011 0.0200011 0.0200011 0.0200011 0.020001 0.020001 0.0200009 0.0200009 0.0200008 0.0200007 0.0200006 0.0200005 0.0200003 0.0200002 0.02 0.0199999 0.0199997 0.0199995 0.0199992 0.019999 0.0199987 0.0199984 0.019998 0.0199977 0.0199973 0.0199968 0.0199964 0.0199959 0.0199954 0.0199948 0.0199942 0.0199935 0.0199929 0.0199921 0.0199913 0.0199905 0.0199896 0.0199887 0.0199877 0.0199867 0.0199856 0.0199845 0.0199833 0.019982 0.0199807 0.0199793 0.0199778 0.0199763 0.0199747 0.0199731 0.0199713 0.0199695 0.0199676 0.0199656 0.0199636 0.0199614 0.0199592 0.0199569 0.0199545 0.0199521 0.0199495 0.0199468 0.0199441 0.0199413 0.0199383 0.0199353 0.0199322 0.019929 0.0199256 0.0199222 0.0199187 0.0199151 0.0199114 0.0199076 0.0199037 0.0198996 0.0198955 0.0198913 0.019887 0.0198825 0.019878 0.0198734 0.0198687 0.0198638 0.0198589 0.0198539 0.0198487 0.0198435 0.0198382 0.0198328 0.0198273 0.0198217 0.019816 0.0198102 0.0198043 0.0197984 0.0197924 0.0197862 0.01978 0.0197738 0.0197674 0.019761 0.0197546 0.019748 0.0197414 0.0197348 0.0197281 0.0197213 0.0197145 0.0197077 0.0197008 0.0196939 0.0196869 0.0196799 0.0196729 0.0196659 0.0196589 0.0196519 0.0196448 0.0196378 0.0196308 0.0196237 0.0196167 0.0196097 0.0196028 0.0195959 0.019589 0.0195821 0.0195753 0.0195686 0.0195619 0.0195552 0.0195487 0.0195422 0.0195357 0.0195294 0.0195231 0.019517 0.0195109 0.0195049 0.0194991 0.0194933 0.0194877 0.0194821 0.0194767 0.0194714 0.0194663 0.0194612 0.0194563 0.0194516 0.0194469 0.0194424 0.0194381 0.0194339 0.0194299 0.019426 0.0194222 0.0194186 0.0194152 0.0194119 0.0194087 0.0194058 0.0194029 0.0194003 0.0193977 0.0193954 0.0193932 0.0193911 0.0193892 0.0193874 0.0193858 0.0193843 0.019383 0.0193818 0.0193808 0.0193799 0.0193791 0.0193785 0.019378 0.0193776 0.0193774 0.0193773 0.0193773 0.0193775 0.0193778 0.0193782 0.0193787 0.0193794 0.0193802 0.0193811 0.0193821 0.0193833 0.0193845 0.019386 0.0193875 0.0193891 0.0193909 0.0193928 0.0193949 0.0193971 0.0193994 0.0194018 0.0194044 0.0194072 0.01941 0.0194131 0.0194163 0.0194196 0.0194232 0.0194269 0.0194308 0.0194349 0.0194392 0.0194437 0.0194485 0.0194535 0.0194587 0.0194641 0.0194698 0.0194758 0.019482 0.0194886 0.0194954 0.0195024 0.0195098 0.0195175 0.0195255 0.0195338 0.0195423 0.0195512 0.0195604 0.0195698 0.0195795 0.0195895 0.0195997 0.0196102 0.0196209 0.0196317 0.0196428 0.0196539 0.0196651 0.0196764 0.0196877 0.019699 0.0197102 0.0197212 0.0197321 0.0197427 0.019753 0.019763 0.0197725 0.0197816 0.0197902 0.0197981 0.0198055 0.0198121 0.0198179 0.019823 0.0198272 0.0198306 0.019833 0.0198345 0.019835 0.0198346 0.0198332 0.0198308 0.0198274 0.0198231 0.0198179 0.0198118 0.019805 0.0197972 0.0197887 0.0197791 0.0197683 0.0197557 0.0197405 0.0197214 0.0196963 0.019662 0.0196133 0.0195402 0.0194231 0.0192362 0.0189665 0.0185813 0.0180608 0.0174571 0.0168403 0.0155111 0.0136443 0.0130135 0 
0.019798 0.0197454 0.0196887 0.0196334 0.0195791 0.0195255 0.0194724 0.0194199 0.019368 0.0193167 0.0192659 0.0192159 0.0191667 0.0191182 0.0190705 0.0190238 0.0189779 0.0189331 0.0188892 0.0188464 0.0188046 0.018764 0.0187246 0.0186863 0.0186492 0.0186134 0.0185789 0.0185456 0.0185137 0.0184832 0.018454 0.0184263 0.0184 0.0183752 0.0183518 0.0183299 0.0183095 0.0182907 0.0182733 0.0182576 0.0182433 0.0182307 0.0182196 0.01821 0.0182021 0.0181957 0.0181909 0.0181876 0.0181859 0.0181858 0.0181872 0.0181902 0.0181946 0.0182006 0.0182081 0.0182171 0.0182275 0.0182394 0.0182527 0.0182674 0.0182835 0.018301 0.0183198 0.0183399 0.0183613 0.018384 0.0184078 0.0184329 0.0184591 0.0184865 0.0185149 0.0185444 0.0185749 0.0186063 0.0186386 0.0186719 0.0187059 0.0187407 0.0187763 0.0188126 0.0188496 0.0188871 0.0189253 0.018964 0.0190033 0.019043 0.0190832 0.0191239 0.0191649 0.0192064 0.0192482 0.0192904 0.0193329 0.0193758 0.0194189 0.0194623 0.0195059 0.0195498 0.0195938 0.0196381 0.0196824 0.0197267 0.0197709 0.0198145 0.0198569 0.0198975 0.0199355 0.0199713 0.020006 0.0200413 0.0200777 0.0201151 0.0201533 0.0201921 0.0202313 0.0202708 0.0203103 0.02035 0.0203896 0.0204291 0.0204685 0.0205077 0.0205467 0.0205853 0.0206237 0.0206616 0.0206992 0.0207363 0.0207729 0.020809 0.0208445 0.0208794 0.0209136 0.0209472 0.0209801 0.0210123 0.0210437 0.0210743 0.0211041 0.0211331 0.0211612 0.0211885 0.0212148 0.0212402 0.0212646 0.0212881 0.0213107 0.0213322 0.0213527 0.0213722 0.0213907 0.0214081 0.0214245 0.0214398 0.0214541 0.0214673 0.0214794 0.0214905 0.0215005 0.0215094 0.0215172 0.021524 0.0215296 0.0215343 0.0215378 0.0215403 0.0215418 0.0215422 0.0215416 0.02154 0.0215374 0.0215338 0.0215292 0.0215237 0.0215172 0.0215098 0.0215015 0.0214923 0.0214822 0.0214713 0.0214595 0.021447 0.0214337 0.0214196 0.0214048 0.0213892 0.021373 0.0213562 0.0213387 0.0213206 0.021302 0.0212828 0.0212631 0.0212429 0.0212223 0.0212013 0.0211798 0.021158 0.0211359 0.0211135 0.0210909 0.021068 0.0210449 0.0210216 0.0209982 0.0209747 0.020951 0.0209274 0.0209037 0.02088 0.0208564 0.0208328 0.0208093 0.020786 0.0207627 0.0207397 0.0207168 0.0206941 0.0206717 0.0206495 0.0206276 0.020606 0.0205847 0.0205637 0.0205431 0.0205228 0.0205029 0.0204834 0.0204643 0.0204456 0.0204273 0.0204095 0.0203921 0.0203751 0.0203585 0.0203425 0.0203268 0.0203117 0.020297 0.0202827 0.0202689 0.0202556 0.0202427 0.0202303 0.0202183 0.0202068 0.0201957 0.020185 0.0201748 0.020165 0.0201556 0.0201466 0.020138 0.0201297 0.0201219 0.0201144 0.0201073 0.0201006 0.0200941 0.020088 0.0200822 0.0200768 0.0200716 0.0200667 0.0200621 0.0200577 0.0200536 0.0200497 0.0200461 0.0200427 0.0200395 0.0200365 0.0200337 0.0200311 0.0200287 0.0200264 0.0200243 0.0200223 0.0200205 0.0200188 0.0200172 0.0200157 0.0200144 0.0200131 0.020012 0.0200109 0.02001 0.0200091 0.0200083 0.0200075 0.0200068 0.0200062 0.0200057 0.0200051 0.0200047 0.0200043 0.0200039 0.0200035 0.0200032 0.020003 0.0200027 0.0200025 0.0200023 0.0200021 0.020002 0.0200018 0.0200017 0.0200016 0.0200015 0.0200015 0.0200014 0.0200014 0.0200013 0.0200013 0.0200013 0.0200012 0.0200012 0.0200012 0.0200012 0.0200012 0.0200012 0.0200012 0.0200012 0.0200012 0.0200012 0.0200012 0.0200012 0.0200012 0.0200011 0.0200011 0.0200011 0.0200011 0.020001 0.020001 0.0200009 0.0200009 0.0200008 0.0200007 0.0200006 0.0200005 0.0200004 0.0200002 0.0200001 0.0199999 0.0199997 0.0199995 0.0199992 0.019999 0.0199987 0.0199984 0.0199981 0.0199977 0.0199973 0.0199969 0.0199964 0.0199959 0.0199954 0.0199949 0.0199943 0.0199936 0.0199929 0.0199922 0.0199914 0.0199906 0.0199897 0.0199888 0.0199878 0.0199868 0.0199857 0.0199846 0.0199834 0.0199821 0.0199808 0.0199794 0.019978 0.0199765 0.0199749 0.0199732 0.0199715 0.0199697 0.0199678 0.0199658 0.0199638 0.0199617 0.0199595 0.0199572 0.0199548 0.0199523 0.0199498 0.0199471 0.0199444 0.0199416 0.0199387 0.0199357 0.0199326 0.0199294 0.0199261 0.0199227 0.0199192 0.0199156 0.0199119 0.0199081 0.0199042 0.0199002 0.0198961 0.0198919 0.0198876 0.0198832 0.0198787 0.0198741 0.0198694 0.0198646 0.0198598 0.0198548 0.0198497 0.0198445 0.0198392 0.0198338 0.0198284 0.0198228 0.0198172 0.0198114 0.0198056 0.0197997 0.0197937 0.0197877 0.0197815 0.0197753 0.0197691 0.0197627 0.0197563 0.0197498 0.0197433 0.0197367 0.01973 0.0197233 0.0197166 0.0197098 0.019703 0.0196962 0.0196893 0.0196824 0.0196755 0.0196685 0.0196616 0.0196546 0.0196476 0.0196407 0.0196337 0.0196267 0.0196198 0.0196129 0.019606 0.0195992 0.0195923 0.0195856 0.0195788 0.0195721 0.0195655 0.0195589 0.0195524 0.019546 0.0195396 0.0195334 0.0195272 0.019521 0.019515 0.0195091 0.0195033 0.0194976 0.019492 0.0194865 0.0194811 0.0194759 0.0194707 0.0194657 0.0194609 0.0194561 0.0194515 0.0194471 0.0194427 0.0194386 0.0194345 0.0194306 0.0194269 0.0194233 0.0194199 0.0194166 0.0194134 0.0194104 0.0194076 0.0194049 0.0194024 0.0194 0.0193978 0.0193957 0.0193937 0.019392 0.0193903 0.0193888 0.0193875 0.0193863 0.0193852 0.0193842 0.0193835 0.0193828 0.0193823 0.0193819 0.0193816 0.0193815 0.0193815 0.0193816 0.0193819 0.0193823 0.0193828 0.0193834 0.0193842 0.0193851 0.0193861 0.0193873 0.0193886 0.01939 0.0193915 0.0193932 0.019395 0.0193969 0.019399 0.0194012 0.0194035 0.019406 0.0194086 0.0194113 0.0194142 0.0194173 0.0194205 0.0194239 0.0194275 0.0194312 0.0194351 0.0194392 0.0194435 0.0194481 0.0194528 0.0194578 0.019463 0.0194685 0.0194742 0.0194802 0.0194864 0.019493 0.0194998 0.0195069 0.0195143 0.019522 0.01953 0.0195382 0.0195468 0.0195557 0.0195649 0.0195744 0.0195841 0.0195941 0.0196044 0.0196149 0.0196256 0.0196365 0.0196475 0.0196587 0.0196699 0.0196812 0.0196925 0.0197038 0.019715 0.0197261 0.019737 0.0197476 0.019758 0.019768 0.0197775 0.0197867 0.0197952 0.0198032 0.0198106 0.0198172 0.0198231 0.0198282 0.0198325 0.0198359 0.0198383 0.0198399 0.0198404 0.01984 0.0198386 0.0198361 0.0198328 0.0198284 0.0198232 0.0198171 0.0198101 0.0198023 0.0197936 0.0197839 0.0197729 0.0197601 0.0197448 0.0197255 0.0197003 0.0196657 0.0196159 0.0195402 0.0194221 0.019241 0.0189777 0.01861 0.0181304 0.0175247 0.0166804 0.015221 0.0129172 0.00881994 -1.73472e-18 
0.019798 0.019744 0.0196885 0.0196334 0.0195789 0.0195252 0.019472 0.0194194 0.0193675 0.0193161 0.0192654 0.0192154 0.0191661 0.0191176 0.01907 0.0190233 0.0189774 0.0189326 0.0188887 0.018846 0.0188042 0.0187636 0.0187242 0.0186859 0.0186489 0.0186131 0.0185786 0.0185454 0.0185135 0.018483 0.0184539 0.0184261 0.0183999 0.018375 0.0183517 0.0183298 0.0183095 0.0182906 0.0182733 0.0182576 0.0182434 0.0182307 0.0182196 0.0182101 0.0182022 0.0181958 0.018191 0.0181878 0.0181861 0.018186 0.0181874 0.0181904 0.0181949 0.0182009 0.0182084 0.0182173 0.0182278 0.0182397 0.018253 0.0182677 0.0182838 0.0183013 0.0183201 0.0183402 0.0183617 0.0183843 0.0184082 0.0184333 0.0184595 0.0184869 0.0185153 0.0185448 0.0185753 0.0186067 0.018639 0.0186723 0.0187063 0.0187412 0.0187768 0.0188131 0.01885 0.0188876 0.0189258 0.0189645 0.0190038 0.0190435 0.0190838 0.0191244 0.0191655 0.019207 0.0192488 0.019291 0.0193336 0.0193764 0.0194195 0.0194629 0.0195065 0.0195504 0.0195944 0.0196386 0.0196828 0.0197268 0.0197705 0.0198132 0.0198546 0.0198942 0.0199319 0.0199683 0.0200043 0.0200407 0.0200778 0.0201156 0.020154 0.0201929 0.0202321 0.0202716 0.0203112 0.0203508 0.0203905 0.02043 0.0204694 0.0205086 0.0205476 0.0205863 0.0206246 0.0206626 0.0207001 0.0207372 0.0207738 0.0208099 0.0208454 0.0208803 0.0209146 0.0209482 0.0209811 0.0210132 0.0210446 0.0210752 0.021105 0.021134 0.0211621 0.0211893 0.0212156 0.021241 0.0212655 0.021289 0.0213115 0.021333 0.0213535 0.021373 0.0213914 0.0214088 0.0214252 0.0214405 0.0214548 0.0214679 0.0214801 0.0214911 0.021501 0.0215099 0.0215177 0.0215245 0.0215301 0.0215347 0.0215383 0.0215408 0.0215422 0.0215426 0.021542 0.0215404 0.0215377 0.0215341 0.0215295 0.0215239 0.0215174 0.02151 0.0215017 0.0214924 0.0214823 0.0214714 0.0214596 0.021447 0.0214337 0.0214195 0.0214047 0.0213891 0.0213729 0.021356 0.0213385 0.0213204 0.0213018 0.0212826 0.0212628 0.0212427 0.021222 0.021201 0.0211795 0.0211577 0.0211356 0.0211132 0.0210905 0.0210676 0.0210444 0.0210211 0.0209977 0.0209742 0.0209506 0.0209269 0.0209032 0.0208795 0.0208559 0.0208323 0.0208088 0.0207854 0.0207622 0.0207391 0.0207162 0.0206935 0.0206711 0.0206489 0.020627 0.0206054 0.0205841 0.0205631 0.0205425 0.0205222 0.0205023 0.0204828 0.0204637 0.020445 0.0204268 0.0204089 0.0203915 0.0203745 0.020358 0.020342 0.0203263 0.0203112 0.0202965 0.0202822 0.0202685 0.0202551 0.0202423 0.0202299 0.0202179 0.0202064 0.0201953 0.0201846 0.0201744 0.0201646 0.0201552 0.0201462 0.0201376 0.0201294 0.0201216 0.0201141 0.020107 0.0201003 0.0200939 0.0200878 0.020082 0.0200765 0.0200714 0.0200665 0.0200619 0.0200575 0.0200534 0.0200496 0.020046 0.0200426 0.0200394 0.0200364 0.0200336 0.020031 0.0200286 0.0200263 0.0200242 0.0200222 0.0200204 0.0200187 0.0200171 0.0200157 0.0200143 0.0200131 0.020012 0.0200109 0.0200099 0.0200091 0.0200082 0.0200075 0.0200068 0.0200062 0.0200056 0.0200051 0.0200047 0.0200042 0.0200039 0.0200035 0.0200032 0.0200029 0.0200027 0.0200025 0.0200023 0.0200021 0.020002 0.0200018 0.0200017 0.0200016 0.0200015 0.0200015 0.0200014 0.0200014 0.0200013 0.0200013 0.0200013 0.0200012 0.0200012 0.0200012 0.0200012 0.0200012 0.0200012 0.0200012 0.0200012 0.0200012 0.0200012 0.0200012 0.0200012 0.0200012 0.0200012 0.0200011 0.0200011 0.0200011 0.0200011 0.020001 0.020001 0.0200009 0.0200008 0.0200007 0.0200006 0.0200005 0.0200004 0.0200003 0.0200001 0.0199999 0.0199997 0.0199995 0.0199993 0.019999 0.0199988 0.0199984 0.0199981 0.0199978 0.0199974 0.0199969 0.0199965 0.019996 0.0199955 0.0199949 0.0199943 0.0199937 0.019993 0.0199923 0.0199915 0.0199907 0.0199898 0.0199889 0.019988 0.019987 0.0199859 0.0199848 0.0199836 0.0199823 0.019981 0.0199796 0.0199782 0.0199767 0.0199751 0.0199734 0.0199717 0.0199699 0.0199681 0.0199661 0.0199641 0.019962 0.0199598 0.0199575 0.0199552 0.0199527 0.0199502 0.0199476 0.0199449 0.019942 0.0199392 0.0199362 0.0199331 0.0199299 0.0199266 0.0199233 0.0199198 0.0199162 0.0199126 0.0199088 0.019905 0.019901 0.019897 0.0198928 0.0198885 0.0198842 0.0198797 0.0198752 0.0198705 0.0198658 0.019861 0.019856 0.019851 0.0198459 0.0198406 0.0198353 0.0198299 0.0198244 0.0198188 0.0198132 0.0198074 0.0198016 0.0197957 0.0197897 0.0197837 0.0197775 0.0197713 0.0197651 0.0197587 0.0197524 0.0197459 0.0197394 0.0197329 0.0197263 0.0197196 0.0197129 0.0197062 0.0196995 0.0196927 0.0196859 0.019679 0.0196722 0.0196653 0.0196585 0.0196516 0.0196448 0.0196379 0.019631 0.0196242 0.0196174 0.0196106 0.0196039 0.0195971 0.0195905 0.0195838 0.0195772 0.0195707 0.0195642 0.0195578 0.0195515 0.0195452 0.019539 0.0195329 0.0195269 0.0195209 0.0195151 0.0195093 0.0195037 0.0194981 0.0194927 0.0194874 0.0194822 0.0194771 0.0194722 0.0194674 0.0194627 0.0194581 0.0194537 0.0194494 0.0194452 0.0194412 0.0194373 0.0194336 0.01943 0.0194266 0.0194233 0.0194201 0.0194171 0.0194143 0.0194116 0.019409 0.0194066 0.0194044 0.0194023 0.0194003 0.0193985 0.0193968 0.0193953 0.0193939 0.0193926 0.0193915 0.0193905 0.0193897 0.019389 0.0193885 0.019388 0.0193877 0.0193876 0.0193875 0.0193876 0.0193879 0.0193882 0.0193887 0.0193894 0.0193901 0.019391 0.019392 0.0193932 0.0193945 0.0193959 0.0193974 0.0193991 0.0194009 0.0194029 0.019405 0.0194072 0.0194095 0.019412 0.0194147 0.0194175 0.0194204 0.0194235 0.0194267 0.0194301 0.0194337 0.0194375 0.0194414 0.0194455 0.0194498 0.0194544 0.0194591 0.0194641 0.0194693 0.0194748 0.0194805 0.0194865 0.0194928 0.0194993 0.0195062 0.0195133 0.0195207 0.0195284 0.0195364 0.0195447 0.0195534 0.0195623 0.0195715 0.019581 0.0195907 0.0196008 0.019611 0.0196216 0.0196323 0.0196432 0.0196542 0.0196654 0.0196767 0.019688 0.0196993 0.0197107 0.0197219 0.019733 0.0197439 0.0197545 0.0197649 0.0197749 0.0197845 0.0197937 0.0198023 0.0198103 0.0198177 0.0198244 0.0198304 0.0198355 0.0198398 0.0198432 0.0198458 0.0198473 0.0198479 0.0198475 0.0198461 0.0198438 0.0198404 0.0198361 0.0198309 0.0198248 0.0198178 0.0198099 0.0198012 0.0197914 0.0197803 0.0197675 0.0197521 0.0197329 0.0197077 0.0196729 0.0196224 0.0195459 0.0194285 0.0192522 0.0189987 0.0186513 0.0181935 0.017575 0.0166518 0.0151375 0.012547 0.00794321 1.0842e-18 