# vtk DataFile Version 2.0
iteration 2160
ASCII

DATASET STRUCTURED_POINTS
DIMENSIONS 621 64 1
ORIGIN 0 0 0
SPACING 0.00161031 0.00161031 0.00161031

POINT_DATA 39744
SCALARS P float 1
LOOKUP_TABLE default
0 0 0 0 0 0 0 0 0 0 0 0 0 0 0 0 0 0 0 0 0 0 0 0 0 0 0 0 0 0 0 0 0 0 0 0 0 0 0 0 0 0 0 0 0 0 0 0 0 0 0 0 0 0 0 0 0 0 0 0 0 0 0 0 0 0 0 0 0 0 0 0 0 0 0 0 0 0 0 0 0 0 0 0 0 0 0 0 0 0 0 0 0 0 0 0 0 0 0 0 0 0 0 0 0 0 0 0 0 0 0 0 0 0 0 0 0 0 0 0 0 0 0 0 0 0 0 0 0 0 0 0 0 0 0 0 0 0 0 0 0 0 0 0 0 0 0 0 0 0 0 0 0 0 0 0 0 0 0 0 0 0 0 0 0 0 0 0 0 0 0 0 0 0 0 0 0 0 0 0 0 0 0 0 0 0 0 0 0 0 0 0 0 0 0 0 0 0 0 0 0 0 0 0 0 0 0 0 0 0 0 0 0 0 0 0 0 0 0 0 0 0 0 0 0 0 0 0 0 0 0 0 0 0 0 0 0 0 0 0 0 0 0 0 0 0 0 0 0 0 0 0 0 0 0 0 0 0 0 0 0 0 0 0 0 0 0 0 0 0 0 0 0 0 0 0 0 0 0 0 0 0 0 0 0 0 0 0 0 0 0 0 0 0 0 0 0 0 0 0 0 0 0 0 0 0 0 0 0 0 0 0 0 0 0 0 0 0 0 0 0 0 0 0 0 0 0 0 0 0 0 0 0 0 0 0 0 0 0 0 0 0 0 0 0 0 0 0 0 0 0 0 0 0 0 0 0 0 0 0 0 0 0 0 0 0 0 0 0 0 0 0 0 0 0 0 0 0 0 0 0 0 0 0 0 0 0 0 0 0 0 0 0 0 0 0 0 0 0 0 0 0 0 0 0 0 0 0 0 0 0 0 0 0 0 0 0 0 0 0 0 0 0 0 0 0 0 0 0 0 0 0 0 0 0 0 0 0 0 0 0 0 0 0 0 0 0 0 0 0 0 0 0 0 0 0 0 0 0 0 0 0 0 0 0 0 0 0 0 0 0 0 0 0 0 0 0 0 0 0 0 0 0 0 0 0 0 0 0 0 0 0 0 0 0 0 0 0 0 0 0 0 0 0 0 0 0 0 0 0 0 0 0 0 0 0 0 0 0 0 0 0 0 0 0 0 0 0 0 0 0 0 0 0 0 0 0 0 0 0 0 0 0 0 0 0 0 0 0 0 0 0 0 0 0 0 0 0 0 0 0 0 0 0 0 0 0 0 0 0 0 0 0 0 0 0 0 0 0 0 0 0 0 0 0 0 0 0 0 0 0 0 0 0 0 0 0 0 0 0 0 0 0 0 0 0 0 0 0 0 0 0 0 0 0 0 0 0 0 0 0 
0.0203423 0.0203125 0.0202696 0.0202277 0.0201879 0.020151 0.0201176 0.0200882 0.0200632 0.0200428 0.020027 0.0200156 0.0200081 0.0200036 0.0200013 0.0200004 0.0200001 0.02 0.02 0.02 0.02 0.02 0.02 0.02 0.02 0.02 0.02 0.02 0.02 0.02 0.02 0.02 0.02 0.02 0.02 0.02 0.02 0.02 0.02 0.02 0.02 0.02 0.02 0.02 0.02 0.02 0.02 0.02 0.02 0.02 0.02 0.02 0.02 0.02 0.02 0.02 0.02 0.02 0.02 0.02 0.02 0.02 0.02 0.02 0.02 0.02 0.02 0.02 0.02 0.02 0.02 0.02 0.02 0.02 0.02 0.02 0.02 0.02 0.02 0.02 0.02 0.02 0.02 0.02 0.02 0.02 0.02 0.02 0.02 0.02 0.02 0.02 0.02 0.02 0.02 0.02 0.02 0.02 0.02 0.02 0.02 0.02 0.02 0.02 0.02 0.02 0.02 0.02 0.02 0.02 0.02 0.02 0.02 0.02 0.02 0.02 0.02 0.02 0.02 0.02 0.02 0.02 0.02 0.02 0.02 0.02 0.02 0.02 0.02 0.02 0.02 0.02 0.02 0.02 0.02 0.02 0.02 0.02 0.02 0.02 0.02 0.02 0.02 0.02 0.02 0.02 0.02 0.02 0.02 0.02 0.02 0.02 0.02 0.02 0.02 0.02 0.02 0.02 0.02 0.02 0.02 0.02 0.02 0.02 0.02 0.02 0.02 0.02 0.02 0.02 0.02 0.02 0.02 0.02 0.02 0.02 0.02 0.02 0.02 0.0200001 0.0200001 0.0200001 0.0200001 0.0200001 0.0200001 0.0200001 0.0200001 0.0200001 0.0200001 0.0200001 0.0200001 0.0200001 0.0200001 0.0200001 0.0200001 0.0200002 0.0200002 0.0200002 0.0200002 0.0200002 0.0200002 0.0200002 0.0200002 0.0200002 0.0200002 0.0200002 0.0200002 0.0200003 0.0200003 0.0200003 0.0200003 0.0200003 0.0200003 0.0200003 0.0200003 0.0200003 0.0200003 0.0200002 0.0200002 0.0200002 0.0200002 0.0200002 0.0200001 0.0200001 0.02 0.02 0.0199999 0.0199999 0.0199998 0.0199997 0.0199996 0.0199995 0.0199994 0.0199992 0.0199991 0.0199989 0.0199987 0.0199985 0.0199983 0.019998 0.0199978 0.0199975 0.0199972 0.0199968 0.0199965 0.0199961 0.0199956 0.0199952 0.0199947 0.0199942 0.0199936 0.019993 0.0199924 0.0199917 0.019991 0.0199902 0.0199894 0.0199885 0.0199876 0.0199867 0.0199857 0.0199846 0.0199835 0.0199823 0.0199811 0.0199798 0.0199785 0.0199771 0.0199757 0.0199742 0.0199727 0.0199711 0.0199694 0.0199677 0.0199659 0.0199641 0.0199623 0.0199604 0.0199584 0.0199564 0.0199543 0.0199522 0.0199501 0.0199479 0.0199457 0.0199434 0.0199412 0.0199389 0.0199365 0.0199342 0.0199318 0.0199294 0.0199271 0.0199247 0.0199223 0.01992 0.0199176 0.0199153 0.019913 0.0199107 0.0199085 0.0199064 0.0199042 0.0199022 0.0199002 0.0198983 0.0198965 0.0198947 0.0198931 0.0198916 0.0198902 0.0198889 0.0198877 0.0198867 0.0198859 0.0198851 0.0198846 0.0198842 0.019884 0.019884 0.0198841 0.0198845 0.019885 0.0198858 0.0198868 0.019888 0.0198894 0.019891 0.0198929 0.0198951 0.0198974 0.0199 0.0199029 0.019906 0.0199093 0.0199129 0.0199167 0.0199208 0.0199252 0.0199297 0.0199345 0.0199396 0.0199449 0.0199504 0.0199561 0.0199621 0.0199682 0.0199746 0.0199811 0.0199879 0.0199948 0.0200018 0.020009 0.0200164 0.0200239 0.0200315 0.0200392 0.0200469 0.0200548 0.0200626 0.0200706 0.0200785 0.0200865 0.0200944 0.0201023 0.0201101 0.0201179 0.0201256 0.0201332 0.0201407 0.020148 0.0201551 0.0201621 0.0201689 0.0201754 0.0201818 0.0201878 0.0201936 0.0201991 0.0202043 0.0202091 0.0202136 0.0202177 0.0202215 0.0202249 0.0202278 0.0202304 0.0202325 0.0202341 0.0202353 0.0202361 0.0202363 0.0202361 0.0202354 0.0202341 0.0202324 0.0202302 0.0202274 0.0202241 0.0202204 0.0202161 0.0202112 0.0202059 0.0202001 0.0201938 0.020187 0.0201798 0.020172 0.0201639 0.0201552 0.0201462 0.0201368 0.0201269 0.0201167 0.0201062 0.0200953 0.0200841 0.0200727 0.0200609 0.020049 0.0200369 0.0200246 0.0200121 0.0199995 0.0199869 0.0199742 0.0199615 0.0199488 0.0199361 0.0199235 0.0199111 0.0198988 0.0198867 0.0198749 0.0198634 0.0198522 0.0198414 0.0198311 0.0198213 0.0198121 0.0198035 0.0197956 0.0197886 0.0197823 0.0197769 0.0197725 0.0197692 0.019767 0.019766 0.0197662 0.0197678 0.0197708 0.0197753 0.0197814 0.0197891 0.0197985 0.0198097 0.0198228 0.0198378 0.0198547 0.0198737 0.0198947 0.0199177 0.0199427 0.0199697 0.0199987 0.0200296 0.0200623 0.0200968 0.0201328 0.0201702 0.0202089 0.0202487 0.0202892 0.0203304 0.0203718 0.0204133 0.0204546 0.0204952 0.020535 0.0205735 0.0206105 0.0206454 0.020678 0.0207078 0.0207344 0.0207571 0.0207756 0.0207891 0.020797 0.0207985 0.0207929 0.0207791 0.0207563 0.0207234 0.0206794 0.020623 0.0205531 0.0204683 0.0203673 0.0202485 0.0201104 0.0199517 0.019771 0.0195671 0.0193394 0.0190874 0.0188107 0.0185082 0.0181774 0.0178161 0.0174243 0.017005 0.0165089 0.0160354 0.0157947 0.018234 0 0 0 0 0 0 0 0 0 0 0 0 0 0 0 0 0 0 0 0 0 0 0 0 0 0 0 0 0 0 0 0 0 0 0 0 0 0 0 0 0 0 0 0 0 0 0 0 0 0 0 0 0 0 0 0 0 0 0 0 0 0 0 0 0 0 0 0 0 0 0 0 0 0 0 0 0 0 0 0 0 0 0 0 0 0 0 0 0 0 0 0 0 0 0 0 0 0 0 0 0 0 0 0 
0.0203423 0.0203037 0.0202621 0.0202211 0.0201821 0.020146 0.0201135 0.0200849 0.0200608 0.0200412 0.0200261 0.0200152 0.0200079 0.0200036 0.0200014 0.0200004 0.0200001 0.02 0.02 0.02 0.02 0.02 0.02 0.02 0.02 0.02 0.02 0.02 0.02 0.02 0.02 0.02 0.02 0.02 0.02 0.02 0.02 0.02 0.02 0.02 0.02 0.02 0.02 0.02 0.02 0.02 0.02 0.02 0.02 0.02 0.02 0.02 0.02 0.02 0.02 0.02 0.02 0.02 0.02 0.02 0.02 0.02 0.02 0.02 0.02 0.02 0.02 0.02 0.02 0.02 0.02 0.02 0.02 0.02 0.02 0.02 0.02 0.02 0.02 0.02 0.02 0.02 0.02 0.02 0.02 0.02 0.02 0.02 0.02 0.02 0.02 0.02 0.02 0.02 0.02 0.02 0.02 0.02 0.02 0.02 0.02 0.02 0.02 0.02 0.02 0.02 0.02 0.02 0.02 0.02 0.02 0.02 0.02 0.02 0.02 0.02 0.02 0.02 0.02 0.02 0.02 0.02 0.02 0.02 0.02 0.02 0.02 0.02 0.02 0.02 0.02 0.02 0.02 0.02 0.02 0.02 0.02 0.02 0.02 0.02 0.02 0.02 0.02 0.02 0.02 0.02 0.02 0.02 0.02 0.02 0.02 0.02 0.02 0.02 0.02 0.02 0.02 0.02 0.02 0.02 0.02 0.02 0.02 0.02 0.02 0.02 0.02 0.02 0.02 0.02 0.02 0.02 0.02 0.02 0.02 0.02 0.02 0.02 0.02 0.0200001 0.0200001 0.0200001 0.0200001 0.0200001 0.0200001 0.0200001 0.0200001 0.0200001 0.0200001 0.0200001 0.0200001 0.0200001 0.0200001 0.0200001 0.0200001 0.0200002 0.0200002 0.0200002 0.0200002 0.0200002 0.0200002 0.0200002 0.0200002 0.0200002 0.0200002 0.0200002 0.0200002 0.0200003 0.0200003 0.0200003 0.0200003 0.0200003 0.0200003 0.0200003 0.0200003 0.0200003 0.0200003 0.0200002 0.0200002 0.0200002 0.0200002 0.0200002 0.0200001 0.0200001 0.02 0.02 0.0199999 0.0199999 0.0199998 0.0199997 0.0199996 0.0199995 0.0199994 0.0199992 0.0199991 0.0199989 0.0199987 0.0199985 0.0199983 0.019998 0.0199978 0.0199975 0.0199972 0.0199968 0.0199965 0.0199961 0.0199957 0.0199952 0.0199947 0.0199942 0.0199936 0.019993 0.0199924 0.0199917 0.019991 0.0199902 0.0199894 0.0199886 0.0199877 0.0199867 0.0199857 0.0199847 0.0199835 0.0199824 0.0199812 0.0199799 0.0199786 0.0199772 0.0199758 0.0199743 0.0199728 0.0199712 0.0199695 0.0199678 0.0199661 0.0199643 0.0199624 0.0199605 0.0199585 0.0199565 0.0199545 0.0199524 0.0199502 0.0199481 0.0199459 0.0199436 0.0199413 0.019939 0.0199367 0.0199344 0.019932 0.0199296 0.0199273 0.0199249 0.0199225 0.0199202 0.0199178 0.0199155 0.0199132 0.0199109 0.0199087 0.0199066 0.0199044 0.0199024 0.0199004 0.0198985 0.0198967 0.0198949 0.0198933 0.0198917 0.0198903 0.019889 0.0198879 0.0198868 0.0198859 0.0198852 0.0198846 0.0198842 0.019884 0.0198839 0.0198841 0.0198844 0.0198849 0.0198857 0.0198866 0.0198878 0.0198892 0.0198908 0.0198926 0.0198947 0.019897 0.0198996 0.0199024 0.0199055 0.0199087 0.0199123 0.0199161 0.0199201 0.0199244 0.0199289 0.0199337 0.0199387 0.0199439 0.0199493 0.019955 0.0199609 0.019967 0.0199733 0.0199798 0.0199864 0.0199933 0.0200003 0.0200074 0.0200147 0.0200221 0.0200296 0.0200372 0.0200449 0.0200527 0.0200605 0.0200683 0.0200762 0.0200841 0.020092 0.0200998 0.0201076 0.0201153 0.0201229 0.0201304 0.0201378 0.0201451 0.0201522 0.0201591 0.0201658 0.0201723 0.0201785 0.0201845 0.0201903 0.0201957 0.0202008 0.0202056 0.0202101 0.0202142 0.0202179 0.0202212 0.0202241 0.0202266 0.0202287 0.0202304 0.0202315 0.0202323 0.0202325 0.0202323 0.0202315 0.0202303 0.0202286 0.0202263 0.0202236 0.0202203 0.0202166 0.0202123 0.0202075 0.0202023 0.0201965 0.0201902 0.0201835 0.0201763 0.0201686 0.0201605 0.0201519 0.0201429 0.0201336 0.0201238 0.0201137 0.0201032 0.0200924 0.0200813 0.0200699 0.0200583 0.0200464 0.0200344 0.0200222 0.0200098 0.0199973 0.0199847 0.0199721 0.0199594 0.0199468 0.0199342 0.0199217 0.0199093 0.019897 0.019885 0.0198732 0.0198617 0.0198506 0.0198399 0.0198296 0.0198198 0.0198106 0.0198021 0.0197942 0.0197872 0.0197809 0.0197756 0.0197712 0.0197678 0.0197656 0.0197645 0.0197647 0.0197662 0.0197691 0.0197734 0.0197793 0.0197868 0.019796 0.0198069 0.0198197 0.0198344 0.019851 0.0198696 0.0198902 0.0199128 0.0199374 0.019964 0.0199926 0.020023 0.0200553 0.0200893 0.0201248 0.0201618 0.0202 0.0202393 0.0202794 0.0203201 0.0203612 0.0204023 0.0204432 0.0204835 0.020523 0.0205613 0.020598 0.0206329 0.0206654 0.0206951 0.0207217 0.0207445 0.0207631 0.0207768 0.0207849 0.0207867 0.0207814 0.0207681 0.0207457 0.0207134 0.02067 0.0206144 0.0205453 0.0204615 0.0203615 0.0202439 0.0201072 0.01995 0.019771 0.019569 0.0193434 0.0190935 0.0188189 0.0185184 0.0181893 0.0178298 0.0174416 0.0170337 0.0165836 0.0160944 0.0158393 0.0159596 0.0155557 0.0147443 0.0141286 0.0134665 0.0126816 0.0119286 0.0113147 0.0122231 0 0 0 0 0 0 0 0 0 0 0 0 0 0 0 0 0 0 0 0 0 0 0 0 0 0 0 0 0 0 0 0 0 0 0 0 0 0 0 0 0 0 0 0 0 0 0 0 0 0 0 0 0 0 0 0 0 0 0 0 0 0 0 0 0 0 0 0 0 0 0 0 0 0 0 0 0 0 0 0 0 0 0 0 0 0 0 0 0 0 0 0 0 0 0 0 
0.0203423 0.0202999 0.0202578 0.0202168 0.0201781 0.0201424 0.0201103 0.0200823 0.0200588 0.0200398 0.0200253 0.0200148 0.0200078 0.0200036 0.0200014 0.0200004 0.0200001 0.02 0.02 0.02 0.02 0.02 0.02 0.02 0.02 0.02 0.02 0.02 0.02 0.02 0.02 0.02 0.02 0.02 0.02 0.02 0.02 0.02 0.02 0.02 0.02 0.02 0.02 0.02 0.02 0.02 0.02 0.02 0.02 0.02 0.02 0.02 0.02 0.02 0.02 0.02 0.02 0.02 0.02 0.02 0.02 0.02 0.02 0.02 0.02 0.02 0.02 0.02 0.02 0.02 0.02 0.02 0.02 0.02 0.02 0.02 0.02 0.02 0.02 0.02 0.02 0.02 0.02 0.02 0.02 0.02 0.02 0.02 0.02 0.02 0.02 0.02 0.02 0.02 0.02 0.02 0.02 0.02 0.02 0.02 0.02 0.02 0.02 0.02 0.02 0.02 0.02 0.02 0.02 0.02 0.02 0.02 0.02 0.02 0.02 0.02 0.02 0.02 0.02 0.02 0.02 0.02 0.02 0.02 0.02 0.02 0.02 0.02 0.02 0.02 0.02 0.02 0.02 0.02 0.02 0.02 0.02 0.02 0.02 0.02 0.02 0.02 0.02 0.02 0.02 0.02 0.02 0.02 0.02 0.02 0.02 0.02 0.02 0.02 0.02 0.02 0.02 0.02 0.02 0.02 0.02 0.02 0.02 0.02 0.02 0.02 0.02 0.02 0.02 0.02 0.02 0.02 0.02 0.02 0.02 0.02 0.02 0.02 0.02 0.0200001 0.0200001 0.0200001 0.0200001 0.0200001 0.0200001 0.0200001 0.0200001 0.0200001 0.0200001 0.0200001 0.0200001 0.0200001 0.0200001 0.0200001 0.0200001 0.0200002 0.0200002 0.0200002 0.0200002 0.0200002 0.0200002 0.0200002 0.0200002 0.0200002 0.0200002 0.0200002 0.0200002 0.0200002 0.0200003 0.0200003 0.0200003 0.0200003 0.0200003 0.0200003 0.0200003 0.0200003 0.0200002 0.0200002 0.0200002 0.0200002 0.0200002 0.0200001 0.0200001 0.0200001 0.02 0.02 0.0199999 0.0199998 0.0199998 0.0199997 0.0199996 0.0199995 0.0199993 0.0199992 0.0199991 0.0199989 0.0199987 0.0199985 0.0199983 0.019998 0.0199978 0.0199975 0.0199972 0.0199968 0.0199965 0.0199961 0.0199957 0.0199952 0.0199947 0.0199942 0.0199936 0.019993 0.0199924 0.0199917 0.019991 0.0199902 0.0199894 0.0199886 0.0199877 0.0199867 0.0199857 0.0199847 0.0199836 0.0199824 0.0199812 0.01998 0.0199787 0.0199773 0.0199759 0.0199744 0.0199729 0.0199713 0.0199696 0.0199679 0.0199662 0.0199644 0.0199625 0.0199606 0.0199587 0.0199567 0.0199546 0.0199526 0.0199504 0.0199483 0.0199461 0.0199438 0.0199416 0.0199393 0.0199369 0.0199346 0.0199323 0.0199299 0.0199275 0.0199252 0.0199228 0.0199205 0.0199181 0.0199158 0.0199135 0.0199113 0.019909 0.0199069 0.0199047 0.0199027 0.0199007 0.0198988 0.019897 0.0198952 0.0198936 0.019892 0.0198906 0.0198893 0.0198881 0.0198871 0.0198862 0.0198854 0.0198848 0.0198844 0.0198842 0.0198841 0.0198842 0.0198845 0.019885 0.0198857 0.0198866 0.0198878 0.0198891 0.0198907 0.0198925 0.0198945 0.0198968 0.0198993 0.0199021 0.0199051 0.0199083 0.0199118 0.0199155 0.0199195 0.0199237 0.0199282 0.0199328 0.0199378 0.0199429 0.0199483 0.0199539 0.0199597 0.0199657 0.0199719 0.0199782 0.0199848 0.0199915 0.0199984 0.0200055 0.0200126 0.0200199 0.0200273 0.0200348 0.0200424 0.02005 0.0200577 0.0200655 0.0200732 0.0200809 0.0200887 0.0200964 0.020104 0.0201116 0.0201191 0.0201265 0.0201337 0.0201408 0.0201478 0.0201546 0.0201612 0.0201675 0.0201736 0.0201795 0.0201851 0.0201904 0.0201954 0.0202001 0.0202044 0.0202084 0.020212 0.0202153 0.0202181 0.0202205 0.0202225 0.020224 0.0202251 0.0202258 0.0202259 0.0202256 0.0202249 0.0202236 0.0202218 0.0202196 0.0202168 0.0202135 0.0202098 0.0202055 0.0202008 0.0201955 0.0201898 0.0201835 0.0201769 0.0201697 0.0201621 0.0201541 0.0201456 0.0201367 0.0201274 0.0201178 0.0201078 0.0200974 0.0200867 0.0200758 0.0200645 0.020053 0.0200413 0.0200294 0.0200173 0.0200051 0.0199927 0.0199803 0.0199678 0.0199553 0.0199428 0.0199303 0.0199179 0.0199057 0.0198936 0.0198817 0.01987 0.0198586 0.0198476 0.019837 0.0198269 0.0198173 0.0198082 0.0197998 0.0197921 0.0197852 0.019779 0.0197738 0.0197695 0.0197662 0.0197641 0.019763 0.0197632 0.0197647 0.0197675 0.0197717 0.0197774 0.0197847 0.0197936 0.0198043 0.0198167 0.019831 0.0198471 0.0198652 0.0198853 0.0199074 0.0199314 0.0199574 0.0199854 0.0200152 0.0200467 0.02008 0.0201148 0.020151 0.0201885 0.020227 0.0202663 0.0203063 0.0203465 0.0203868 0.0204269 0.0204665 0.0205052 0.0205428 0.0205789 0.0206131 0.020645 0.0206743 0.0207004 0.0207229 0.0207412 0.0207547 0.0207628 0.0207647 0.0207595 0.0207464 0.0207245 0.0206926 0.0206499 0.0205951 0.0205269 0.0204442 0.0203456 0.0202296 0.0200947 0.0199397 0.0197632 0.0195642 0.0193419 0.0190959 0.0188256 0.0185297 0.018206 0.0178529 0.0174761 0.0170949 0.0166977 0.0162742 0.0159794 0.0157357 0.0153627 0.0147252 0.0140972 0.0133938 0.0126496 0.0119679 0.0109374 0.0107452 0.00975719 0.00856041 0.00809041 0.00620062 0 0 0 0 0 0 0 0 0 0 0 0 0 0 0 0 0 0 0 0 0 0 0 0 0 0 0 0 0 0 0 0 0 0 0 0 0 0 0 0 0 0 0 0 0 0 0 0 0 0 0 0 0 0 0 0 0 0 0 0 0 0 0 0 0 0 0 0 0 0 0 0 0 0 0 0 0 0 0 0 0 0 0 0 0 0 0 0 0 0 0 -8.67362e-19 
0.0203423 0.0202977 0.0202547 0.0202135 0.0201748 0.0201393 0.0201077 0.0200802 0.0200572 0.0200388 0.0200246 0.0200145 0.0200077 0.0200036 0.0200014 0.0200004 0.0200001 0.02 0.02 0.02 0.02 0.02 0.02 0.02 0.02 0.02 0.02 0.02 0.02 0.02 0.02 0.02 0.02 0.02 0.02 0.02 0.02 0.02 0.02 0.02 0.02 0.02 0.02 0.02 0.02 0.02 0.02 0.02 0.02 0.02 0.02 0.02 0.02 0.02 0.02 0.02 0.02 0.02 0.02 0.02 0.02 0.02 0.02 0.02 0.02 0.02 0.02 0.02 0.02 0.02 0.02 0.02 0.02 0.02 0.02 0.02 0.02 0.02 0.02 0.02 0.02 0.02 0.02 0.02 0.02 0.02 0.02 0.02 0.02 0.02 0.02 0.02 0.02 0.02 0.02 0.02 0.02 0.02 0.02 0.02 0.02 0.02 0.02 0.02 0.02 0.02 0.02 0.02 0.02 0.02 0.02 0.02 0.02 0.02 0.02 0.02 0.02 0.02 0.02 0.02 0.02 0.02 0.02 0.02 0.02 0.02 0.02 0.02 0.02 0.02 0.02 0.02 0.02 0.02 0.02 0.02 0.02 0.02 0.02 0.02 0.02 0.02 0.02 0.02 0.02 0.02 0.02 0.02 0.02 0.02 0.02 0.02 0.02 0.02 0.02 0.02 0.02 0.02 0.02 0.02 0.02 0.02 0.02 0.02 0.02 0.02 0.02 0.02 0.02 0.02 0.02 0.02 0.02 0.02 0.02 0.02 0.02 0.02 0.02 0.0200001 0.0200001 0.0200001 0.0200001 0.0200001 0.0200001 0.0200001 0.0200001 0.0200001 0.0200001 0.0200001 0.0200001 0.0200001 0.0200001 0.0200001 0.0200001 0.0200001 0.0200002 0.0200002 0.0200002 0.0200002 0.0200002 0.0200002 0.0200002 0.0200002 0.0200002 0.0200002 0.0200002 0.0200002 0.0200002 0.0200002 0.0200003 0.0200003 0.0200003 0.0200003 0.0200002 0.0200002 0.0200002 0.0200002 0.0200002 0.0200002 0.0200002 0.0200001 0.0200001 0.0200001 0.02 0.02 0.0199999 0.0199998 0.0199998 0.0199997 0.0199996 0.0199995 0.0199993 0.0199992 0.019999 0.0199989 0.0199987 0.0199985 0.0199983 0.019998 0.0199978 0.0199975 0.0199972 0.0199968 0.0199965 0.0199961 0.0199956 0.0199952 0.0199947 0.0199942 0.0199936 0.019993 0.0199924 0.0199917 0.019991 0.0199903 0.0199895 0.0199886 0.0199877 0.0199868 0.0199858 0.0199847 0.0199836 0.0199825 0.0199813 0.0199801 0.0199787 0.0199774 0.019976 0.0199745 0.019973 0.0199714 0.0199698 0.0199681 0.0199663 0.0199646 0.0199627 0.0199608 0.0199589 0.0199569 0.0199549 0.0199528 0.0199507 0.0199485 0.0199463 0.0199441 0.0199419 0.0199396 0.0199373 0.019935 0.0199326 0.0199303 0.0199279 0.0199256 0.0199232 0.0199209 0.0199186 0.0199162 0.019914 0.0199117 0.0199095 0.0199073 0.0199052 0.0199032 0.0199012 0.0198993 0.0198975 0.0198957 0.0198941 0.0198925 0.0198911 0.0198898 0.0198886 0.0198875 0.0198866 0.0198859 0.0198853 0.0198848 0.0198845 0.0198844 0.0198845 0.0198848 0.0198853 0.0198859 0.0198868 0.0198879 0.0198892 0.0198907 0.0198925 0.0198945 0.0198967 0.0198992 0.0199018 0.0199048 0.0199079 0.0199113 0.019915 0.0199189 0.019923 0.0199274 0.0199319 0.0199368 0.0199418 0.0199471 0.0199525 0.0199582 0.0199641 0.0199701 0.0199764 0.0199828 0.0199894 0.0199961 0.020003 0.02001 0.0200172 0.0200244 0.0200317 0.0200392 0.0200466 0.0200541 0.0200617 0.0200692 0.0200768 0.0200844 0.0200919 0.0200993 0.0201067 0.020114 0.0201212 0.0201282 0.0201352 0.0201419 0.0201485 0.0201549 0.0201611 0.020167 0.0201727 0.0201781 0.0201832 0.020188 0.0201925 0.0201967 0.0202005 0.020204 0.020207 0.0202097 0.020212 0.0202138 0.0202153 0.0202162 0.0202168 0.0202169 0.0202165 0.0202156 0.0202143 0.0202125 0.0202101 0.0202074 0.0202041 0.0202003 0.020196 0.0201913 0.0201861 0.0201804 0.0201742 0.0201676 0.0201605 0.020153 0.0201451 0.0201367 0.020128 0.0201188 0.0201093 0.0200995 0.0200893 0.0200788 0.020068 0.020057 0.0200457 0.0200342 0.0200225 0.0200106 0.0199986 0.0199864 0.0199742 0.0199619 0.0199496 0.0199373 0.0199251 0.0199129 0.0199008 0.0198889 0.0198772 0.0198658 0.0198547 0.0198439 0.0198335 0.0198236 0.0198142 0.0198054 0.0197972 0.0197896 0.0197829 0.0197769 0.0197718 0.0197676 0.0197644 0.0197623 0.0197613 0.0197615 0.019763 0.0197657 0.0197698 0.0197754 0.0197824 0.019791 0.0198012 0.0198132 0.0198269 0.0198425 0.0198599 0.0198793 0.0199006 0.0199238 0.0199489 0.0199759 0.0200047 0.0200353 0.0200675 0.0201012 0.0201363 0.0201726 0.0202099 0.020248 0.0202867 0.0203257 0.0203648 0.0204037 0.020442 0.0204796 0.0205161 0.0205511 0.0205842 0.0206153 0.0206437 0.0206691 0.020691 0.0207088 0.020722 0.0207299 0.0207318 0.0207268 0.0207141 0.0206927 0.0206616 0.0206198 0.0205662 0.0204995 0.0204185 0.0203219 0.0202082 0.0200761 0.0199242 0.0197514 0.0195565 0.0193388 0.019098 0.0188337 0.0185446 0.0182291 0.017887 0.0175275 0.0171748 0.0168421 0.0164885 0.0160759 0.0157872 0.0153323 0.0147729 0.0141545 0.0134677 0.0127632 0.0121077 0.011435 0.0105585 0.00950292 0.00839559 0.00733125 0.00583262 0.00408723 0.00276531 0.000105883 0 0 0 0 0 0 0 0 0 0 0 0 0 0 0 0 0 0 0 0 0 0 0 0 0 0 0 0 0 0 0 0 0 0 0 0 0 0 0 0 0 0 0 0 0 0 0 0 0 0 0 0 0 0 0 0 0 0 0 0 0 0 0 0 0 0 0 0 0 0 0 0 0 0 0 0 0 0 0 0 0 0 0 0 0 0 0 0 -1.73472e-18 
0.0203423 0.0202962 0.0202523 0.0202108 0.0201721 0.0201368 0.0201055 0.0200785 0.020056 0.0200379 0.0200242 0.0200143 0.0200076 0.0200036 0.0200014 0.0200004 0.0200001 0.02 0.02 0.02 0.02 0.02 0.02 0.02 0.02 0.02 0.02 0.02 0.02 0.02 0.02 0.02 0.02 0.02 0.02 0.02 0.02 0.02 0.02 0.02 0.02 0.02 0.02 0.02 0.02 0.02 0.02 0.02 0.02 0.02 0.02 0.02 0.02 0.02 0.02 0.02 0.02 0.02 0.02 0.02 0.02 0.02 0.02 0.02 0.02 0.02 0.02 0.02 0.02 0.02 0.02 0.02 0.02 0.02 0.02 0.02 0.02 0.02 0.02 0.02 0.02 0.02 0.02 0.02 0.02 0.02 0.02 0.02 0.02 0.02 0.02 0.02 0.02 0.02 0.02 0.02 0.02 0.02 0.02 0.02 0.02 0.02 0.02 0.02 0.02 0.02 0.02 0.02 0.02 0.02 0.02 0.02 0.02 0.02 0.02 0.02 0.02 0.02 0.02 0.02 0.02 0.02 0.02 0.02 0.02 0.02 0.02 0.02 0.02 0.02 0.02 0.02 0.02 0.02 0.02 0.02 0.02 0.02 0.02 0.02 0.02 0.02 0.02 0.02 0.02 0.02 0.02 0.02 0.02 0.02 0.02 0.02 0.02 0.02 0.02 0.02 0.02 0.02 0.02 0.02 0.02 0.02 0.02 0.02 0.02 0.02 0.02 0.02 0.02 0.02 0.02 0.02 0.02 0.02 0.02 0.02 0.02 0.02 0.02 0.02 0.0200001 0.0200001 0.0200001 0.0200001 0.0200001 0.0200001 0.0200001 0.0200001 0.0200001 0.0200001 0.0200001 0.0200001 0.0200001 0.0200001 0.0200001 0.0200001 0.0200001 0.0200002 0.0200002 0.0200002 0.0200002 0.0200002 0.0200002 0.0200002 0.0200002 0.0200002 0.0200002 0.0200002 0.0200002 0.0200002 0.0200002 0.0200002 0.0200002 0.0200002 0.0200002 0.0200002 0.0200002 0.0200002 0.0200002 0.0200002 0.0200001 0.0200001 0.0200001 0.02 0.02 0.0199999 0.0199999 0.0199998 0.0199997 0.0199996 0.0199995 0.0199994 0.0199993 0.0199992 0.019999 0.0199989 0.0199987 0.0199985 0.0199982 0.019998 0.0199977 0.0199975 0.0199971 0.0199968 0.0199964 0.0199961 0.0199956 0.0199952 0.0199947 0.0199942 0.0199936 0.019993 0.0199924 0.0199917 0.019991 0.0199903 0.0199895 0.0199887 0.0199878 0.0199868 0.0199858 0.0199848 0.0199837 0.0199826 0.0199814 0.0199802 0.0199789 0.0199775 0.0199761 0.0199747 0.0199731 0.0199716 0.01997 0.0199683 0.0199666 0.0199648 0.019963 0.0199611 0.0199592 0.0199572 0.0199552 0.0199531 0.0199511 0.0199489 0.0199467 0.0199445 0.0199423 0.0199401 0.0199378 0.0199355 0.0199331 0.0199308 0.0199285 0.0199261 0.0199238 0.0199215 0.0199192 0.0199169 0.0199146 0.0199124 0.0199102 0.019908 0.0199059 0.0199039 0.0199019 0.0199 0.0198982 0.0198964 0.0198948 0.0198932 0.0198918 0.0198905 0.0198893 0.0198882 0.0198873 0.0198865 0.0198859 0.0198854 0.0198851 0.019885 0.019885 0.0198853 0.0198857 0.0198863 0.0198872 0.0198882 0.0198895 0.0198909 0.0198926 0.0198945 0.0198967 0.0198991 0.0199017 0.0199045 0.0199076 0.0199109 0.0199144 0.0199182 0.0199222 0.0199264 0.0199309 0.0199356 0.0199405 0.0199456 0.0199509 0.0199565 0.0199622 0.0199681 0.0199742 0.0199804 0.0199868 0.0199934 0.0200001 0.0200069 0.0200138 0.0200208 0.020028 0.0200351 0.0200424 0.0200497 0.020057 0.0200643 0.0200717 0.020079 0.0200862 0.0200934 0.0201006 0.0201076 0.0201146 0.0201214 0.020128 0.0201345 0.0201409 0.020147 0.0201529 0.0201586 0.020164 0.0201692 0.0201741 0.0201787 0.020183 0.0201869 0.0201905 0.0201938 0.0201966 0.0201991 0.0202012 0.0202029 0.0202042 0.020205 0.0202054 0.0202054 0.0202049 0.0202039 0.0202025 0.0202006 0.0201982 0.0201954 0.0201921 0.0201883 0.0201841 0.0201793 0.0201742 0.0201685 0.0201624 0.0201559 0.0201489 0.0201416 0.0201338 0.0201256 0.020117 0.020108 0.0200987 0.0200891 0.0200791 0.0200688 0.0200583 0.0200475 0.0200365 0.0200252 0.0200138 0.0200022 0.0199904 0.0199785 0.0199666 0.0199546 0.0199426 0.0199306 0.0199187 0.0199068 0.0198951 0.0198835 0.0198721 0.019861 0.0198502 0.0198398 0.0198297 0.0198201 0.019811 0.0198024 0.0197944 0.0197871 0.0197805 0.0197747 0.0197697 0.0197656 0.0197625 0.0197604 0.0197594 0.0197596 0.0197609 0.0197636 0.0197675 0.0197729 0.0197796 0.0197879 0.0197976 0.0198091 0.0198221 0.0198369 0.0198535 0.0198719 0.0198922 0.0199143 0.0199382 0.019964 0.0199915 0.0200207 0.0200514 0.0200837 0.0201172 0.020152 0.0201877 0.0202242 0.0202612 0.0202985 0.020336 0.0203732 0.0204099 0.0204459 0.0204809 0.0205144 0.0205463 0.020576 0.0206033 0.0206278 0.0206489 0.0206661 0.0206789 0.0206866 0.0206885 0.0206837 0.0206715 0.0206509 0.020621 0.0205806 0.0205286 0.0204639 0.0203853 0.0202914 0.0201808 0.0200522 0.0199044 0.019736 0.0195462 0.0193342 0.0190997 0.0188425 0.018562 0.0182574 0.0179304 0.0175911 0.0172608 0.0169556 0.0166602 0.0163218 0.0159014 0.0154084 0.0148684 0.0142711 0.0136133 0.01293 0.0122477 0.0115118 0.01061 0.00957014 0.00842541 0.00719899 0.00563953 0.0038172 0.00187918 -0.000691027 -0.00337041 -0.00740108 0 0 0 0 0 0 0 0 0 0 0 0 0 0 0 0 0 0 0 0 0 0 0 0 0 0 0 0 0 0 0 0 0 0 0 0 0 0 0 0 0 0 0 0 0 0 0 0 0 0 0 0 0 0 0 0 0 0 0 0 0 0 0 0 0 0 0 0 0 0 0 0 0 0 0 0 0 0 0 0 0 0 0 0 0 0 -1.0842e-18 
0.0203423 0.0202951 0.0202505 0.0202086 0.0201699 0.0201348 0.0201038 0.0200772 0.0200551 0.0200374 0.0200239 0.0200141 0.0200076 0.0200036 0.0200014 0.0200004 0.0200001 0.02 0.02 0.02 0.02 0.02 0.02 0.02 0.02 0.02 0.02 0.02 0.02 0.02 0.02 0.02 0.02 0.02 0.02 0.02 0.02 0.02 0.02 0.02 0.02 0.02 0.02 0.02 0.02 0.02 0.02 0.02 0.02 0.02 0.02 0.02 0.02 0.02 0.02 0.02 0.02 0.02 0.02 0.02 0.02 0.02 0.02 0.02 0.02 0.02 0.02 0.02 0.02 0.02 0.02 0.02 0.02 0.02 0.02 0.02 0.02 0.02 0.02 0.02 0.02 0.02 0.02 0.02 0.02 0.02 0.02 0.02 0.02 0.02 0.02 0.02 0.02 0.02 0.02 0.02 0.02 0.02 0.02 0.02 0.02 0.02 0.02 0.02 0.02 0.02 0.02 0.02 0.02 0.02 0.02 0.02 0.02 0.02 0.02 0.02 0.02 0.02 0.02 0.02 0.02 0.02 0.02 0.02 0.02 0.02 0.02 0.02 0.02 0.02 0.02 0.02 0.02 0.02 0.02 0.02 0.02 0.02 0.02 0.02 0.02 0.02 0.02 0.02 0.02 0.02 0.02 0.02 0.02 0.02 0.02 0.02 0.02 0.02 0.02 0.02 0.02 0.02 0.02 0.02 0.02 0.02 0.02 0.02 0.02 0.02 0.02 0.02 0.02 0.02 0.02 0.02 0.02 0.02 0.02 0.02 0.02 0.02 0.02 0.02 0.0200001 0.0200001 0.0200001 0.0200001 0.0200001 0.0200001 0.0200001 0.0200001 0.0200001 0.0200001 0.0200001 0.0200001 0.0200001 0.0200001 0.0200001 0.0200001 0.0200001 0.0200001 0.0200002 0.0200002 0.0200002 0.0200002 0.0200002 0.0200002 0.0200002 0.0200002 0.0200002 0.0200002 0.0200002 0.0200002 0.0200002 0.0200002 0.0200002 0.0200002 0.0200002 0.0200002 0.0200002 0.0200002 0.0200002 0.0200001 0.0200001 0.0200001 0.0200001 0.02 0.02 0.0199999 0.0199999 0.0199998 0.0199997 0.0199996 0.0199995 0.0199994 0.0199993 0.0199991 0.019999 0.0199988 0.0199986 0.0199984 0.0199982 0.019998 0.0199977 0.0199974 0.0199971 0.0199968 0.0199964 0.019996 0.0199956 0.0199952 0.0199947 0.0199942 0.0199936 0.0199931 0.0199924 0.0199918 0.0199911 0.0199903 0.0199895 0.0199887 0.0199878 0.0199869 0.0199859 0.0199849 0.0199838 0.0199827 0.0199815 0.0199803 0.019979 0.0199777 0.0199763 0.0199749 0.0199734 0.0199718 0.0199702 0.0199686 0.0199669 0.0199651 0.0199633 0.0199615 0.0199596 0.0199576 0.0199556 0.0199536 0.0199515 0.0199494 0.0199473 0.0199451 0.0199429 0.0199406 0.0199384 0.0199361 0.0199338 0.0199315 0.0199292 0.0199269 0.0199246 0.0199223 0.01992 0.0199177 0.0199155 0.0199132 0.0199111 0.0199089 0.0199068 0.0199048 0.0199028 0.0199009 0.0198991 0.0198974 0.0198957 0.0198942 0.0198928 0.0198914 0.0198902 0.0198891 0.0198882 0.0198874 0.0198867 0.0198862 0.0198859 0.0198857 0.0198858 0.019886 0.0198863 0.0198869 0.0198877 0.0198887 0.0198899 0.0198912 0.0198929 0.0198947 0.0198968 0.019899 0.0199015 0.0199043 0.0199072 0.0199104 0.0199138 0.0199175 0.0199214 0.0199254 0.0199298 0.0199343 0.019939 0.019944 0.0199491 0.0199544 0.01996 0.0199657 0.0199715 0.0199776 0.0199838 0.0199901 0.0199966 0.0200031 0.0200098 0.0200166 0.0200235 0.0200304 0.0200374 0.0200444 0.0200514 0.0200585 0.0200655 0.0200725 0.0200795 0.0200864 0.0200932 0.0201 0.0201066 0.0201131 0.0201195 0.0201257 0.0201317 0.0201376 0.0201432 0.0201486 0.0201537 0.0201586 0.0201632 0.0201675 0.0201715 0.0201752 0.0201786 0.0201816 0.0201842 0.0201865 0.0201883 0.0201898 0.0201909 0.0201915 0.0201918 0.0201916 0.020191 0.0201899 0.0201884 0.0201864 0.020184 0.0201811 0.0201778 0.020174 0.0201697 0.0201651 0.0201599 0.0201544 0.0201484 0.020142 0.0201351 0.0201279 0.0201203 0.0201123 0.0201039 0.0200951 0.0200861 0.0200767 0.020067 0.020057 0.0200468 0.0200363 0.0200255 0.0200146 0.0200035 0.0199922 0.0199809 0.0199694 0.0199578 0.0199462 0.0199346 0.019923 0.0199115 0.0199001 0.0198888 0.0198776 0.0198667 0.019856 0.0198456 0.0198356 0.0198259 0.0198166 0.0198078 0.0197995 0.0197918 0.0197847 0.0197782 0.0197725 0.0197676 0.0197635 0.0197604 0.0197582 0.0197572 0.0197572 0.0197585 0.0197609 0.0197647 0.0197697 0.0197762 0.019784 0.0197933 0.0198041 0.0198164 0.0198304 0.019846 0.0198633 0.0198823 0.0199031 0.0199256 0.0199498 0.0199757 0.0200032 0.0200322 0.0200626 0.0200942 0.020127 0.0201607 0.0201951 0.0202301 0.0202654 0.0203007 0.0203359 0.0203706 0.0204046 0.0204377 0.0204695 0.0204996 0.0205279 0.0205538 0.0205771 0.0205972 0.0206137 0.020626 0.0206335 0.0206354 0.0206311 0.0206196 0.0206 0.0205715 0.0205328 0.020483 0.0204209 0.0203451 0.0202546 0.0201478 0.0200234 0.0198803 0.0197171 0.019533 0.0193273 0.0190996 0.0188503 0.0185797 0.0182883 0.017979 0.0176604 0.0173467 0.0170463 0.0167437 0.0164013 0.0159937 0.0155216 0.0149964 0.0144186 0.0137862 0.013119 0.0124072 0.0116309 0.0107123 0.00966831 0.0084874 0.00716116 0.00557575 0.00372913 0.00161504 -0.000910991 -0.00396698 -0.00791859 -0.012768 0 0 0 0 0 0 0 0 0 0 0 0 0 0 0 0 0 0 0 0 0 0 0 0 0 0 0 0 0 0 0 0 0 0 0 0 0 0 0 0 0 0 0 0 0 0 0 0 0 0 0 0 0 0 0 0 0 0 0 0 0 0 0 0 0 0 0 0 0 0 0 0 0 0 0 0 0 0 0 0 0 0 0 0 -0.0128618 -1.73472e-18 