# vtk DataFile Version 2.0
iteration 2700
ASCII

DATASET STRUCTURED_POINTS
DIMENSIONS 621 64 1
ORIGIN 0 0 0
SPACING 0.00161031 0.00161031 0.00161031

POINT_DATA 39744
SCALARS P float 1
LOOKUP_TABLE default
0 0 0 0 0 0 0 0 0 0 0 0 0 0 0 0 0 0 0 0 0 0 0 0 0 0 0 0 0 0 0 0 0 0 0 0 0 0 0 0 0 0 0 0 0 0 0 0 0 0 0 0 0 0 0 0 0 0 0 0 0 0 0 0 0 0 0 0 0 0 0 0 0 0 0 0 0 0 0 0 0 0 0 0 0 0 0 0 0 0 0 0 0 0 0 0 0 0 0 0 0 0 0 0 0 0 0 0 0 0 0 0 0 0 0 0 0 0 0 0 0 0 0 0 0 0 0 0 0 0 0 0 0 0 0 0 0 0 0 0 0 0 0 0 0 0 0 0 0 0 0 0 0 0 0 0 0 0 0 0 0 0 0 0 0 0 0 0 0 0 0 0 0 0 0 0 0 0 0 0 0 0 0 0 0 0 0 0 0 0 0 0 0 0 0 0 0 0 0 0 0 0 0 0 0 0 0 0 0 0 0 0 0 0 0 0 0 0 0 0 0 0 0 0 0 0 0 0 0 0 0 0 0 0 0 0 0 0 0 0 0 0 0 0 0 0 0 0 0 0 0 0 0 0 0 0 0 0 0 0 0 0 0 0 0 0 0 0 0 0 0 0 0 0 0 0 0 0 0 0 0 0 0 0 0 0 0 0 0 0 0 0 0 0 0 0 0 0 0 0 0 0 0 0 0 0 0 0 0 0 0 0 0 0 0 0 0 0 0 0 0 0 0 0 0 0 0 0 0 0 0 0 0 0 0 0 0 0 0 0 0 0 0 0 0 0 0 0 0 0 0 0 0 0 0 0 0 0 0 0 0 0 0 0 0 0 0 0 0 0 0 0 0 0 0 0 0 0 0 0 0 0 0 0 0 0 0 0 0 0 0 0 0 0 0 0 0 0 0 0 0 0 0 0 0 0 0 0 0 0 0 0 0 0 0 0 0 0 0 0 0 0 0 0 0 0 0 0 0 0 0 0 0 0 0 0 0 0 0 0 0 0 0 0 0 0 0 0 0 0 0 0 0 0 0 0 0 0 0 0 0 0 0 0 0 0 0 0 0 0 0 0 0 0 0 0 0 0 0 0 0 0 0 0 0 0 0 0 0 0 0 0 0 0 0 0 0 0 0 0 0 0 0 0 0 0 0 0 0 0 0 0 0 0 0 0 0 0 0 0 0 0 0 0 0 0 0 0 0 0 0 0 0 0 0 0 0 0 0 0 0 0 0 0 0 0 0 0 0 0 0 0 0 0 0 0 0 0 0 0 0 0 0 0 0 0 0 0 0 0 0 0 0 0 0 0 0 0 0 0 0 0 0 0 0 0 0 0 0 0 0 0 0 0 0 0 0 0 0 0 0 0 0 0 0 0 0 0 0 0 0 0 0 0 0 0 0 0 0 0 0 
0.0187935 0.0188199 0.0187125 0.0186698 0.0186293 0.0185909 0.0185542 0.0185188 0.0184849 0.0184524 0.0184212 0.0183915 0.0183633 0.0183366 0.0183113 0.0182876 0.0182655 0.0182448 0.0182257 0.0182082 0.0181922 0.0181777 0.0181649 0.0181536 0.0181438 0.0181356 0.018129 0.018124 0.0181205 0.0181186 0.0181182 0.0181193 0.0181221 0.0181263 0.0181321 0.0181394 0.0181482 0.0181585 0.0181703 0.0181836 0.0181983 0.0182145 0.0182321 0.0182511 0.0182714 0.0182932 0.0183162 0.0183406 0.0183662 0.0183931 0.0184212 0.0184504 0.0184808 0.0185122 0.0185447 0.0185782 0.0186127 0.0186481 0.0186843 0.0187213 0.0187592 0.0187977 0.018837 0.0188769 0.0189174 0.0189586 0.0190003 0.0190425 0.0190852 0.0191284 0.019172 0.0192161 0.0192606 0.0193054 0.0193506 0.0193961 0.0194419 0.019488 0.0195344 0.0195809 0.0196277 0.0196746 0.0197216 0.0197686 0.0198155 0.0198618 0.0199068 0.0199476 0.0199817 0.0200091 0.0200439 0.020082 0.0201216 0.0201621 0.0202031 0.0202444 0.020286 0.0203276 0.0203693 0.0204109 0.0204523 0.0204936 0.0205346 0.0205754 0.0206158 0.0206558 0.0206954 0.0207345 0.020773 0.0208111 0.0208485 0.0208853 0.0209214 0.0209568 0.0209915 0.0210254 0.0210585 0.0210908 0.0211223 0.0211528 0.0211824 0.0212112 0.0212389 0.0212657 0.0212915 0.0213163 0.02134 0.0213627 0.0213844 0.021405 0.0214245 0.0214429 0.0214602 0.0214764 0.0214915 0.0215055 0.0215184 0.0215301 0.0215407 0.0215501 0.0215585 0.0215657 0.0215718 0.0215767 0.0215806 0.0215834 0.021585 0.0215856 0.0215851 0.0215835 0.0215808 0.0215771 0.0215724 0.0215667 0.02156 0.0215522 0.0215436 0.021534 0.0215234 0.021512 0.0214997 0.0214866 0.0214726 0.0214578 0.0214422 0.0214259 0.0214089 0.0213912 0.0213728 0.0213538 0.0213342 0.021314 0.0212932 0.021272 0.0212503 0.0212281 0.0212056 0.0211826 0.0211593 0.0211357 0.0211118 0.0210877 0.0210634 0.0210389 0.0210142 0.0209895 0.0209646 0.0209397 0.0209148 0.02089 0.0208651 0.0208404 0.0208157 0.0207912 0.0207668 0.0207427 0.0207187 0.020695 0.0206716 0.0206484 0.0206255 0.020603 0.0205808 0.020559 0.0205376 0.0205166 0.0204959 0.0204758 0.020456 0.0204367 0.0204179 0.0203995 0.0203816 0.0203642 0.0203473 0.0203309 0.020315 0.0202996 0.0202846 0.0202702 0.0202563 0.0202428 0.0202299 0.0202174 0.0202055 0.020194 0.0201829 0.0201724 0.0201622 0.0201526 0.0201433 0.0201345 0.0201261 0.0201181 0.0201105 0.0201033 0.0200964 0.02009 0.0200838 0.020078 0.0200726 0.0200674 0.0200625 0.020058 0.0200537 0.0200496 0.0200458 0.0200423 0.020039 0.0200359 0.020033 0.0200303 0.0200278 0.0200255 0.0200233 0.0200213 0.0200195 0.0200178 0.0200162 0.0200148 0.0200134 0.0200122 0.020011 0.02001 0.0200091 0.0200082 0.0200074 0.0200067 0.020006 0.0200054 0.0200049 0.0200044 0.0200039 0.0200035 0.0200032 0.0200029 0.0200026 0.0200023 0.0200021 0.0200019 0.0200017 0.0200016 0.0200014 0.0200013 0.0200012 0.0200011 0.0200011 0.020001 0.020001 0.0200009 0.0200009 0.0200009 0.0200009 0.0200009 0.0200009 0.0200009 0.020001 0.020001 0.0200011 0.0200012 0.0200012 0.0200013 0.0200014 0.0200015 0.0200016 0.0200017 0.0200019 0.020002 0.0200021 0.0200023 0.0200025 0.0200026 0.0200028 0.020003 0.0200032 0.0200034 0.0200037 0.0200039 0.0200042 0.0200045 0.0200047 0.020005 0.0200054 0.0200057 0.020006 0.0200064 0.0200068 0.0200072 0.0200076 0.020008 0.0200085 0.020009 0.0200095 0.02001 0.0200105 0.020011 0.0200116 0.0200122 0.0200128 0.0200134 0.0200141 0.0200147 0.0200154 0.0200161 0.0200169 0.0200176 0.0200184 0.0200192 0.02002 0.0200208 0.0200216 0.0200225 0.0200234 0.0200243 0.0200252 0.0200261 0.0200271 0.0200281 0.0200291 0.0200301 0.0200311 0.0200321 0.0200332 0.0200342 0.0200353 0.0200364 0.0200375 0.0200386 0.0200397 0.0200408 0.0200419 0.020043 0.0200442 0.0200453 0.0200464 0.0200476 0.0200487 0.0200498 0.0200509 0.0200521 0.0200532 0.0200543 0.0200553 0.0200564 0.0200575 0.0200585 0.0200595 0.0200605 0.0200615 0.0200625 0.0200634 0.0200643 0.0200652 0.0200661 0.020067 0.0200678 0.0200686 0.0200694 0.0200702 0.0200709 0.0200716 0.0200722 0.0200729 0.0200735 0.0200741 0.0200746 0.0200751 0.0200756 0.0200761 0.0200765 0.0200769 0.0200773 0.0200776 0.0200779 0.0200782 0.0200785 0.0200787 0.0200789 0.0200791 0.0200793 0.0200794 0.0200795 0.0200796 0.0200797 0.0200797 0.0200798 0.0200798 0.0200798 0.0200798 0.0200798 0.0200798 0.0200797 0.0200797 0.0200797 0.0200796 0.0200796 0.0200795 0.0200795 0.0200795 0.0200794 0.0200794 0.0200794 0.0200794 0.0200794 0.0200795 0.0200795 0.0200796 0.0200796 0.0200797 0.0200798 0.02008 0.0200801 0.0200803 0.0200805 0.0200808 0.020081 0.0200813 0.0200817 0.020082 0.0200824 0.0200828 0.0200833 0.0200838 0.0200843 0.0200849 0.0200855 0.0200861 0.0200868 0.0200875 0.0200883 0.0200891 0.0200899 0.0200908 0.0200918 0.0200927 0.0200937 0.0200948 0.0200959 0.0200971 0.0200983 0.0200995 0.0201008 0.0201022 0.0201036 0.020105 0.0201065 0.0201081 0.0201097 0.0201113 0.0201131 0.0201148 0.0201167 0.0201186 0.0201205 0.0201225 0.0201246 0.0201268 0.020129 0.0201313 0.0201336 0.0201361 0.0201385 0.0201411 0.0201438 0.0201465 0.0201493 0.0201522 0.0201551 0.0201581 0.0201613 0.0201645 0.0201678 0.0201711 0.0201746 0.0201781 0.0201817 0.0201854 0.0201892 0.0201931 0.020197 0.020201 0.0202051 0.0202093 0.0202135 0.0202178 0.0202222 0.0202266 0.0202311 0.0202356 0.0202402 0.0202448 0.0202495 0.0202542 0.020259 0.0202638 0.0202686 0.0202734 0.0202783 0.0202832 0.0202881 0.020293 0.020298 0.0203029 0.0203079 0.0203129 0.0203179 0.020323 0.0203281 0.0203332 0.0203384 0.0203437 0.020349 0.0203545 0.02036 0.0203656 0.0203714 0.0203773 0.0203833 0.0203895 0.0203958 0.0204024 0.0204091 0.0204161 0.0204232 0.0204306 0.0204382 0.020446 0.0204539 0.0204621 0.0204705 0.020479 0.0204876 0.0204963 0.0205051 0.0205138 0.0205226 0.0205312 0.0205397 0.0205479 0.0205558 0.0205634 0.0205705 0.020577 0.0205828 0.0205878 0.0205919 0.020595 0.0205968 0.0205973 0.0205963 0.0205935 0.0205888 0.0205819 0.0205725 0.0205605 0.0205454 0.0205271 0.0205051 0.0204791 0.0204487 0.0204135 0.0203729 0.0203263 0.020273 0.0202118 0.0201413 0.0200594 0.0199627 0.0198464 0.0197029 0.0195206 0.0192819 0.0189605 0.0185231 0.0179638 0.0175559 0.0197066 0 0 0 0 
0.0187935 0.0187761 0.0187164 0.0186718 0.0186307 0.0185919 0.0185549 0.0185195 0.0184855 0.0184529 0.0184217 0.018392 0.0183638 0.0183371 0.0183118 0.0182881 0.0182659 0.0182453 0.0182262 0.0182086 0.0181926 0.0181782 0.0181653 0.018154 0.0181443 0.0181361 0.0181295 0.0181244 0.0181209 0.0181189 0.0181186 0.0181197 0.0181224 0.0181267 0.0181324 0.0181397 0.0181485 0.0181588 0.0181706 0.0181839 0.0181986 0.0182147 0.0182323 0.0182513 0.0182717 0.0182934 0.0183164 0.0183408 0.0183664 0.0183933 0.0184213 0.0184506 0.0184809 0.0185124 0.0185449 0.0185783 0.0186128 0.0186481 0.0186844 0.0187214 0.0187592 0.0187978 0.0188371 0.018877 0.0189175 0.0189587 0.0190004 0.0190426 0.0190853 0.0191285 0.0191721 0.0192162 0.0192607 0.0193055 0.0193507 0.0193962 0.019442 0.0194881 0.0195344 0.0195809 0.0196277 0.0196745 0.0197214 0.0197683 0.0198147 0.0198601 0.0199035 0.0199432 0.019979 0.0200131 0.0200492 0.0200874 0.0201269 0.0201674 0.0202083 0.0202496 0.0202911 0.0203327 0.0203743 0.0204158 0.0204572 0.0204984 0.0205394 0.02058 0.0206204 0.0206603 0.0206998 0.0207388 0.0207773 0.0208153 0.0208526 0.0208893 0.0209253 0.0209607 0.0209952 0.0210291 0.0210621 0.0210943 0.0211256 0.021156 0.0211856 0.0212142 0.0212418 0.0212685 0.0212942 0.0213188 0.0213425 0.0213651 0.0213866 0.0214071 0.0214265 0.0214448 0.021462 0.0214781 0.0214931 0.0215069 0.0215197 0.0215313 0.0215417 0.0215511 0.0215593 0.0215664 0.0215724 0.0215773 0.021581 0.0215836 0.0215852 0.0215856 0.021585 0.0215833 0.0215805 0.0215768 0.0215719 0.0215661 0.0215593 0.0215515 0.0215427 0.021533 0.0215224 0.0215108 0.0214984 0.0214852 0.0214711 0.0214563 0.0214406 0.0214242 0.0214071 0.0213893 0.0213709 0.0213518 0.0213321 0.0213118 0.021291 0.0212697 0.0212479 0.0212257 0.0212031 0.0211801 0.0211568 0.0211331 0.0211092 0.0210851 0.0210607 0.0210362 0.0210115 0.0209867 0.0209619 0.020937 0.020912 0.0208872 0.0208623 0.0208376 0.0208129 0.0207884 0.0207641 0.0207399 0.020716 0.0206923 0.0206688 0.0206457 0.0206229 0.0206004 0.0205782 0.0205565 0.0205351 0.0205141 0.0204935 0.0204734 0.0204537 0.0204344 0.0204157 0.0203974 0.0203795 0.0203622 0.0203453 0.020329 0.0203131 0.0202977 0.0202829 0.0202685 0.0202546 0.0202413 0.0202284 0.020216 0.020204 0.0201926 0.0201816 0.0201711 0.020161 0.0201514 0.0201422 0.0201335 0.0201251 0.0201172 0.0201096 0.0201024 0.0200956 0.0200892 0.0200831 0.0200774 0.0200719 0.0200668 0.020062 0.0200574 0.0200532 0.0200492 0.0200454 0.0200419 0.0200386 0.0200355 0.0200327 0.02003 0.0200275 0.0200252 0.0200231 0.0200211 0.0200193 0.0200176 0.020016 0.0200146 0.0200133 0.020012 0.0200109 0.0200099 0.020009 0.0200081 0.0200073 0.0200066 0.0200059 0.0200054 0.0200048 0.0200043 0.0200039 0.0200035 0.0200031 0.0200028 0.0200025 0.0200023 0.0200021 0.0200019 0.0200017 0.0200015 0.0200014 0.0200013 0.0200012 0.0200011 0.020001 0.020001 0.0200009 0.0200009 0.0200009 0.0200009 0.0200009 0.0200009 0.0200009 0.0200009 0.020001 0.020001 0.0200011 0.0200011 0.0200012 0.0200013 0.0200014 0.0200015 0.0200016 0.0200017 0.0200018 0.020002 0.0200021 0.0200023 0.0200024 0.0200026 0.0200028 0.020003 0.0200032 0.0200034 0.0200036 0.0200039 0.0200042 0.0200044 0.0200047 0.020005 0.0200053 0.0200057 0.020006 0.0200064 0.0200068 0.0200071 0.0200076 0.020008 0.0200084 0.0200089 0.0200094 0.0200099 0.0200104 0.020011 0.0200115 0.0200121 0.0200127 0.0200134 0.020014 0.0200147 0.0200154 0.0200161 0.0200168 0.0200175 0.0200183 0.0200191 0.0200199 0.0200207 0.0200215 0.0200224 0.0200233 0.0200242 0.0200251 0.0200261 0.020027 0.020028 0.020029 0.02003 0.020031 0.020032 0.0200331 0.0200341 0.0200352 0.0200363 0.0200374 0.0200385 0.0200396 0.0200407 0.0200418 0.020043 0.0200441 0.0200452 0.0200463 0.0200475 0.0200486 0.0200497 0.0200508 0.020052 0.0200531 0.0200541 0.0200552 0.0200563 0.0200573 0.0200584 0.0200594 0.0200604 0.0200614 0.0200624 0.0200633 0.0200642 0.0200652 0.020066 0.0200669 0.0200677 0.0200686 0.0200693 0.0200701 0.0200708 0.0200715 0.0200722 0.0200728 0.0200735 0.020074 0.0200746 0.0200751 0.0200756 0.0200761 0.0200765 0.0200769 0.0200773 0.0200776 0.0200779 0.0200782 0.0200785 0.0200787 0.0200789 0.0200791 0.0200792 0.0200794 0.0200795 0.0200796 0.0200796 0.0200797 0.0200797 0.0200798 0.0200798 0.0200798 0.0200797 0.0200797 0.0200797 0.0200797 0.0200796 0.0200796 0.0200795 0.0200795 0.0200794 0.0200794 0.0200794 0.0200793 0.0200793 0.0200793 0.0200793 0.0200793 0.0200794 0.0200794 0.0200795 0.0200796 0.0200797 0.0200798 0.0200799 0.0200801 0.0200803 0.0200806 0.0200808 0.0200811 0.0200814 0.0200818 0.0200821 0.0200826 0.020083 0.0200835 0.020084 0.0200846 0.0200851 0.0200858 0.0200864 0.0200872 0.0200879 0.0200887 0.0200895 0.0200904 0.0200913 0.0200923 0.0200933 0.0200943 0.0200954 0.0200966 0.0200978 0.020099 0.0201003 0.0201016 0.020103 0.0201044 0.0201059 0.0201075 0.0201091 0.0201107 0.0201124 0.0201142 0.020116 0.0201179 0.0201199 0.0201219 0.020124 0.0201261 0.0201283 0.0201306 0.0201329 0.0201353 0.0201378 0.0201404 0.020143 0.0201458 0.0201485 0.0201514 0.0201544 0.0201574 0.0201605 0.0201637 0.020167 0.0201704 0.0201738 0.0201773 0.0201809 0.0201846 0.0201884 0.0201923 0.0201962 0.0202002 0.0202043 0.0202084 0.0202127 0.0202169 0.0202213 0.0202257 0.0202302 0.0202347 0.0202392 0.0202438 0.0202485 0.0202532 0.0202579 0.0202626 0.0202674 0.0202722 0.020277 0.0202819 0.0202867 0.0202916 0.0202965 0.0203014 0.0203063 0.0203113 0.0203163 0.0203213 0.0203263 0.0203314 0.0203365 0.0203417 0.020347 0.0203523 0.0203578 0.0203633 0.020369 0.0203748 0.0203807 0.0203868 0.0203931 0.0203996 0.0204062 0.0204131 0.0204201 0.0204274 0.0204349 0.0204426 0.0204504 0.0204585 0.0204667 0.0204751 0.0204836 0.0204922 0.0205009 0.0205095 0.0205182 0.0205267 0.0205351 0.0205432 0.020551 0.0205585 0.0205655 0.0205719 0.0205776 0.0205826 0.0205867 0.0205897 0.0205915 0.020592 0.020591 0.0205882 0.0205835 0.0205767 0.0205675 0.0205556 0.0205407 0.0205225 0.0205008 0.0204751 0.020445 0.0204102 0.02037 0.0203239 0.020271 0.0202104 0.0201404 0.0200589 0.0199626 0.0198464 0.0197025 0.0195192 0.0192787 0.0189561 0.0185249 0.0179933 0.0174523 0.016986 0.0154592 0.0133966 0.0126873 0 
0.0187935 0.0187623 0.0187157 0.0186723 0.0186312 0.0185923 0.0185551 0.0185196 0.0184855 0.0184529 0.0184217 0.018392 0.0183638 0.0183371 0.0183119 0.0182882 0.018266 0.0182454 0.0182263 0.0182087 0.0181927 0.0181783 0.0181655 0.0181542 0.0181444 0.0181362 0.0181296 0.0181246 0.0181211 0.0181192 0.0181188 0.0181199 0.0181227 0.0181269 0.0181327 0.01814 0.0181488 0.0181591 0.0181709 0.0181842 0.0181989 0.0182151 0.0182327 0.0182517 0.018272 0.0182938 0.0183168 0.0183412 0.0183668 0.0183937 0.0184218 0.018451 0.0184814 0.0185128 0.0185453 0.0185788 0.0186132 0.0186486 0.0186848 0.0187219 0.0187597 0.0187983 0.0188376 0.0188775 0.0189181 0.0189592 0.0190009 0.0190432 0.0190859 0.0191291 0.0191727 0.0192168 0.0192613 0.0193061 0.0193513 0.0193968 0.0194426 0.0194886 0.019535 0.0195815 0.0196282 0.0196749 0.0197216 0.019768 0.0198136 0.0198577 0.0198996 0.0199388 0.0199758 0.0200125 0.0200502 0.0200889 0.0201287 0.0201692 0.0202102 0.0202515 0.020293 0.0203345 0.0203761 0.0204177 0.0204591 0.0205003 0.0205412 0.0205819 0.0206222 0.0206621 0.0207016 0.0207406 0.0207791 0.020817 0.0208543 0.020891 0.020927 0.0209623 0.0209969 0.0210307 0.0210636 0.0210958 0.0211271 0.0211575 0.021187 0.0212156 0.0212432 0.0212698 0.0212955 0.0213201 0.0213437 0.0213663 0.0213878 0.0214082 0.0214276 0.0214458 0.021463 0.021479 0.021494 0.0215078 0.0215205 0.021532 0.0215425 0.0215518 0.02156 0.021567 0.021573 0.0215778 0.0215815 0.0215841 0.0215856 0.021586 0.0215853 0.0215835 0.0215808 0.0215769 0.021572 0.0215662 0.0215593 0.0215514 0.0215426 0.0215329 0.0215222 0.0215107 0.0214982 0.0214849 0.0214708 0.0214559 0.0214402 0.0214238 0.0214067 0.0213888 0.0213703 0.0213512 0.0213315 0.0213112 0.0212904 0.021269 0.0212472 0.021225 0.0212023 0.0211793 0.0211559 0.0211323 0.0211083 0.0210842 0.0210598 0.0210352 0.0210105 0.0209857 0.0209609 0.0209359 0.020911 0.0208861 0.0208613 0.0208365 0.0208119 0.0207873 0.020763 0.0207388 0.0207149 0.0206912 0.0206678 0.0206446 0.0206218 0.0205993 0.0205772 0.0205554 0.0205341 0.0205131 0.0204925 0.0204724 0.0204527 0.0204335 0.0204147 0.0203964 0.0203786 0.0203613 0.0203445 0.0203281 0.0203123 0.0202969 0.0202821 0.0202678 0.0202539 0.0202405 0.0202277 0.0202153 0.0202034 0.020192 0.020181 0.0201705 0.0201605 0.0201509 0.0201417 0.020133 0.0201246 0.0201167 0.0201092 0.020102 0.0200953 0.0200888 0.0200828 0.020077 0.0200716 0.0200665 0.0200617 0.0200572 0.0200529 0.0200489 0.0200452 0.0200417 0.0200384 0.0200354 0.0200325 0.0200299 0.0200274 0.0200251 0.020023 0.020021 0.0200192 0.0200175 0.0200159 0.0200145 0.0200132 0.020012 0.0200109 0.0200098 0.0200089 0.020008 0.0200073 0.0200065 0.0200059 0.0200053 0.0200048 0.0200043 0.0200039 0.0200035 0.0200031 0.0200028 0.0200025 0.0200023 0.020002 0.0200018 0.0200017 0.0200015 0.0200014 0.0200013 0.0200012 0.0200011 0.020001 0.020001 0.0200009 0.0200009 0.0200009 0.0200009 0.0200009 0.0200009 0.0200009 0.0200009 0.020001 0.020001 0.0200011 0.0200011 0.0200012 0.0200013 0.0200014 0.0200015 0.0200016 0.0200017 0.0200018 0.020002 0.0200021 0.0200022 0.0200024 0.0200026 0.0200028 0.020003 0.0200032 0.0200034 0.0200036 0.0200039 0.0200041 0.0200044 0.0200047 0.020005 0.0200053 0.0200056 0.020006 0.0200063 0.0200067 0.0200071 0.0200075 0.0200079 0.0200084 0.0200089 0.0200093 0.0200098 0.0200104 0.0200109 0.0200115 0.0200121 0.0200127 0.0200133 0.0200139 0.0200146 0.0200153 0.020016 0.0200167 0.0200174 0.0200182 0.020019 0.0200198 0.0200206 0.0200214 0.0200223 0.0200232 0.0200241 0.020025 0.0200259 0.0200269 0.0200279 0.0200289 0.0200299 0.0200309 0.0200319 0.020033 0.020034 0.0200351 0.0200362 0.0200373 0.0200384 0.0200395 0.0200406 0.0200417 0.0200428 0.0200439 0.0200451 0.0200462 0.0200473 0.0200484 0.0200496 0.0200507 0.0200518 0.0200529 0.020054 0.020055 0.0200561 0.0200571 0.0200582 0.0200592 0.0200602 0.0200612 0.0200622 0.0200631 0.0200641 0.020065 0.0200659 0.0200667 0.0200676 0.0200684 0.0200692 0.0200699 0.0200706 0.0200713 0.020072 0.0200727 0.0200733 0.0200738 0.0200744 0.0200749 0.0200754 0.0200759 0.0200763 0.0200767 0.0200771 0.0200774 0.0200777 0.020078 0.0200782 0.0200785 0.0200787 0.0200788 0.020079 0.0200791 0.0200792 0.0200793 0.0200794 0.0200794 0.0200794 0.0200795 0.0200795 0.0200794 0.0200794 0.0200794 0.0200793 0.0200793 0.0200792 0.0200792 0.0200791 0.020079 0.020079 0.0200789 0.0200789 0.0200788 0.0200788 0.0200788 0.0200787 0.0200787 0.0200788 0.0200788 0.0200788 0.0200789 0.020079 0.0200791 0.0200792 0.0200794 0.0200795 0.0200797 0.02008 0.0200802 0.0200805 0.0200808 0.0200812 0.0200816 0.020082 0.0200824 0.0200829 0.0200835 0.020084 0.0200846 0.0200853 0.0200859 0.0200867 0.0200874 0.0200882 0.0200891 0.02009 0.0200909 0.0200919 0.0200929 0.020094 0.0200951 0.0200963 0.0200975 0.0200987 0.0201001 0.0201014 0.0201028 0.0201043 0.0201058 0.0201074 0.0201091 0.0201108 0.0201125 0.0201143 0.0201162 0.0201181 0.0201201 0.0201222 0.0201243 0.0201265 0.0201288 0.0201311 0.0201335 0.020136 0.0201386 0.0201412 0.0201439 0.0201467 0.0201496 0.0201526 0.0201556 0.0201587 0.0201619 0.0201652 0.0201686 0.0201721 0.0201756 0.0201792 0.0201829 0.0201867 0.0201906 0.0201945 0.0201985 0.0202026 0.0202068 0.020211 0.0202153 0.0202196 0.020224 0.0202284 0.0202329 0.0202374 0.020242 0.0202466 0.0202512 0.0202559 0.0202606 0.0202653 0.0202701 0.0202748 0.0202796 0.0202844 0.0202892 0.020294 0.0202988 0.0203036 0.0203085 0.0203133 0.0203182 0.0203232 0.0203282 0.0203332 0.0203383 0.0203434 0.0203486 0.0203539 0.0203594 0.0203649 0.0203706 0.0203764 0.0203823 0.0203885 0.0203948 0.0204013 0.020408 0.0204149 0.020422 0.0204293 0.0204368 0.0204445 0.0204524 0.0204604 0.0204686 0.020477 0.0204854 0.0204938 0.0205023 0.0205108 0.0205191 0.0205273 0.0205353 0.0205429 0.0205502 0.020557 0.0205633 0.0205689 0.0205737 0.0205776 0.0205805 0.0205823 0.0205827 0.0205816 0.0205788 0.0205741 0.0205673 0.0205581 0.0205462 0.0205315 0.0205135 0.020492 0.0204665 0.0204368 0.0204023 0.0203625 0.0203169 0.0202646 0.0202045 0.0201353 0.0200545 0.019959 0.0198435 0.0197004 0.0195179 0.0192792 0.0189637 0.0185585 0.0180774 0.0175091 0.0166943 0.0151313 0.0127327 0.00864665 1.30104e-18 
0.0187935 0.018757 0.0187145 0.0186723 0.0186315 0.0185925 0.0185553 0.0185196 0.0184854 0.0184528 0.0184216 0.0183919 0.0183637 0.018337 0.0183118 0.0182881 0.0182659 0.0182453 0.0182262 0.0182087 0.0181927 0.0181783 0.0181655 0.0181542 0.0181445 0.0181363 0.0181297 0.0181247 0.0181212 0.0181193 0.0181189 0.0181201 0.0181229 0.0181271 0.0181329 0.0181403 0.0181491 0.0181594 0.0181712 0.0181845 0.0181993 0.0182155 0.0182331 0.0182521 0.0182725 0.0182942 0.0183173 0.0183417 0.0183673 0.0183942 0.0184223 0.0184515 0.0184819 0.0185133 0.0185459 0.0185794 0.0186138 0.0186492 0.0186854 0.0187225 0.0187604 0.0187989 0.0188382 0.0188782 0.0189188 0.0189599 0.0190017 0.0190439 0.0190867 0.0191299 0.0191735 0.0192176 0.0192621 0.0193069 0.0193521 0.0193976 0.0194434 0.0194894 0.0195357 0.0195822 0.0196288 0.0196754 0.0197217 0.0197674 0.0198121 0.019855 0.019896 0.0199352 0.0199733 0.0200113 0.02005 0.0200893 0.0201294 0.02017 0.0202111 0.0202524 0.0202939 0.0203356 0.0203772 0.0204187 0.0204601 0.0205013 0.0205423 0.0205829 0.0206233 0.0206632 0.0207027 0.0207417 0.0207802 0.0208181 0.0208554 0.0208921 0.0209281 0.0209634 0.0209979 0.0210317 0.0210647 0.0210968 0.0211281 0.0211585 0.021188 0.0212165 0.0212441 0.0212708 0.0212964 0.021321 0.0213446 0.0213671 0.0213886 0.021409 0.0214284 0.0214466 0.0214637 0.0214798 0.0214947 0.0215085 0.0215211 0.0215327 0.0215431 0.0215524 0.0215605 0.0215676 0.0215735 0.0215783 0.0215819 0.0215845 0.021586 0.0215864 0.0215857 0.0215839 0.0215811 0.0215772 0.0215723 0.0215664 0.0215595 0.0215516 0.0215428 0.021533 0.0215223 0.0215107 0.0214983 0.021485 0.0214708 0.0214559 0.0214402 0.0214237 0.0214065 0.0213887 0.0213702 0.021351 0.0213313 0.021311 0.0212901 0.0212687 0.0212469 0.0212246 0.021202 0.0211789 0.0211556 0.0211319 0.0211079 0.0210837 0.0210593 0.0210347 0.02101 0.0209852 0.0209603 0.0209354 0.0209105 0.0208856 0.0208607 0.0208359 0.0208113 0.0207867 0.0207624 0.0207382 0.0207143 0.0206906 0.0206672 0.020644 0.0206212 0.0205987 0.0205766 0.0205548 0.0205334 0.0205125 0.0204919 0.0204718 0.0204521 0.0204329 0.0204142 0.0203959 0.0203781 0.0203607 0.0203439 0.0203276 0.0203118 0.0202964 0.0202816 0.0202673 0.0202534 0.0202401 0.0202272 0.0202149 0.020203 0.0201916 0.0201806 0.0201701 0.0201601 0.0201505 0.0201414 0.0201326 0.0201243 0.0201164 0.0201089 0.0201018 0.020095 0.0200886 0.0200825 0.0200768 0.0200714 0.0200663 0.0200615 0.020057 0.0200527 0.0200487 0.020045 0.0200415 0.0200383 0.0200352 0.0200324 0.0200297 0.0200273 0.020025 0.0200229 0.0200209 0.0200191 0.0200174 0.0200159 0.0200144 0.0200131 0.0200119 0.0200108 0.0200098 0.0200088 0.020008 0.0200072 0.0200065 0.0200059 0.0200053 0.0200048 0.0200043 0.0200038 0.0200034 0.0200031 0.0200028 0.0200025 0.0200022 0.020002 0.0200018 0.0200017 0.0200015 0.0200014 0.0200013 0.0200012 0.0200011 0.020001 0.020001 0.0200009 0.0200009 0.0200009 0.0200009 0.0200009 0.0200009 0.0200009 0.0200009 0.020001 0.020001 0.0200011 0.0200011 0.0200012 0.0200013 0.0200014 0.0200015 0.0200016 0.0200017 0.0200018 0.0200019 0.0200021 0.0200022 0.0200024 0.0200025 0.0200027 0.0200029 0.0200031 0.0200033 0.0200036 0.0200038 0.0200041 0.0200043 0.0200046 0.0200049 0.0200052 0.0200056 0.0200059 0.0200063 0.0200066 0.020007 0.0200074 0.0200079 0.0200083 0.0200088 0.0200093 0.0200098 0.0200103 0.0200108 0.0200114 0.020012 0.0200125 0.0200132 0.0200138 0.0200145 0.0200151 0.0200158 0.0200166 0.0200173 0.0200181 0.0200188 0.0200196 0.0200205 0.0200213 0.0200221 0.020023 0.0200239 0.0200248 0.0200258 0.0200267 0.0200277 0.0200287 0.0200297 0.0200307 0.0200317 0.0200328 0.0200338 0.0200349 0.020036 0.020037 0.0200381 0.0200392 0.0200403 0.0200414 0.0200426 0.0200437 0.0200448 0.0200459 0.020047 0.0200481 0.0200493 0.0200504 0.0200515 0.0200526 0.0200536 0.0200547 0.0200558 0.0200568 0.0200579 0.0200589 0.0200599 0.0200609 0.0200618 0.0200628 0.0200637 0.0200646 0.0200655 0.0200664 0.0200672 0.020068 0.0200688 0.0200695 0.0200703 0.020071 0.0200716 0.0200723 0.0200729 0.0200734 0.020074 0.0200745 0.020075 0.0200754 0.0200758 0.0200762 0.0200766 0.0200769 0.0200772 0.0200775 0.0200777 0.020078 0.0200781 0.0200783 0.0200784 0.0200786 0.0200787 0.0200787 0.0200788 0.0200788 0.0200788 0.0200788 0.0200788 0.0200788 0.0200787 0.0200787 0.0200786 0.0200785 0.0200784 0.0200783 0.0200783 0.0200782 0.0200781 0.020078 0.0200779 0.0200779 0.0200778 0.0200777 0.0200777 0.0200776 0.0200776 0.0200776 0.0200776 0.0200776 0.0200777 0.0200778 0.0200779 0.020078 0.0200781 0.0200783 0.0200785 0.0200787 0.0200789 0.0200792 0.0200795 0.0200799 0.0200802 0.0200807 0.0200811 0.0200816 0.0200821 0.0200827 0.0200833 0.0200839 0.0200846 0.0200853 0.0200861 0.0200869 0.0200877 0.0200886 0.0200896 0.0200906 0.0200916 0.0200927 0.0200938 0.020095 0.0200962 0.0200975 0.0200988 0.0201002 0.0201017 0.0201032 0.0201047 0.0201063 0.020108 0.0201097 0.0201115 0.0201134 0.0201153 0.0201173 0.0201193 0.0201214 0.0201236 0.0201259 0.0201282 0.0201306 0.0201331 0.0201357 0.0201383 0.0201411 0.0201439 0.0201467 0.0201497 0.0201528 0.0201559 0.0201591 0.0201625 0.0201658 0.0201693 0.0201729 0.0201765 0.0201803 0.0201841 0.020188 0.0201919 0.0201959 0.0202 0.0202042 0.0202084 0.0202126 0.020217 0.0202213 0.0202257 0.0202302 0.0202347 0.0202392 0.0202437 0.0202483 0.0202529 0.0202575 0.0202621 0.0202668 0.0202714 0.0202761 0.0202808 0.0202855 0.0202902 0.0202949 0.0202996 0.0203043 0.020309 0.0203138 0.0203186 0.0203234 0.0203283 0.0203332 0.0203382 0.0203432 0.0203484 0.0203536 0.0203589 0.0203644 0.02037 0.0203758 0.0203817 0.0203878 0.0203941 0.0204006 0.0204072 0.0204141 0.0204212 0.0204285 0.0204359 0.0204436 0.0204514 0.0204593 0.0204674 0.0204756 0.0204838 0.020492 0.0205002 0.0205083 0.0205162 0.0205239 0.0205313 0.0205384 0.0205449 0.020551 0.0205563 0.0205609 0.0205647 0.0205674 0.0205689 0.0205692 0.0205679 0.020565 0.0205602 0.0205534 0.0205442 0.0205324 0.0205177 0.0204998 0.0204785 0.0204533 0.0204239 0.0203897 0.0203505 0.0203054 0.0202537 0.0201944 0.020126 0.0200461 0.0199516 0.0198372 0.0196954 0.0195148 0.0192804 0.018977 0.0185977 0.0181361 0.0175311 0.0166015 0.0150266 0.0123923 0.00781792 3.25261e-19 