# vtk DataFile Version 2.0
iteration 1161
ASCII

DATASET STRUCTURED_POINTS
DIMENSIONS 621 64 1
ORIGIN 0 0 0
SPACING 0.00161031 0.00161031 0.00161031

POINT_DATA 39744
SCALARS P float 1
LOOKUP_TABLE default
0 0 0 0 0 0 0 0 0 0 0 0 0 0 0 0 0 0 0 0 0 0 0 0 0 0 0 0 0 0 0 0 0 0 0 0 0 0 0 0 0 0 0 0 0 0 0 0 0 0 0 0 0 0 0 0 0 0 0 0 0 0 0 0 0 0 0 0 0 0 0 0 0 0 0 0 0 0 0 0 0 0 0 0 0 0 0 0 0 0 0 0 0 0 0 0 0 0 0 0 0 0 0 0 0 0 0 0 0 0 0 0 0 0 0 0 0 0 0 0 0 0 0 0 0 0 0 0 0 0 0 0 0 0 0 0 0 0 0 0 0 0 0 0 0 0 0 0 0 0 0 0 0 0 0 0 0 0 0 0 0 0 0 0 0 0 0 0 0 0 0 0 0 0 0 0 0 0 0 0 0 0 0 0 0 0 0 0 0 0 0 0 0 0 0 0 0 0 0 0 0 0 0 0 0 0 0 0 0 0 0 0 0 0 0 0 0 0 0 0 0 0 0 0 0 0 0 0 0 0 0 0 0 0 0 0 0 0 0 0 0 0 0 0 0 0 0 0 0 0 0 0 0 0 0 0 0 0 0 0 0 0 0 0 0 0 0 0 0 0 0 0 0 0 0 0 0 0 0 0 0 0 0 0 0 0 0 0 0 0 0 0 0 0 0 0 0 0 0 0 0 0 0 0 0 0 0 0 0 0 0 0 0 0 0 0 0 0 0 0 0 0 0 0 0 0 0 0 0 0 0 0 0 0 0 0 0 0 0 0 0 0 0 0 0 0 0 0 0 0 0 0 0 0 0 0 0 0 0 0 0 0 0 0 0 0 0 0 0 0 0 0 0 0 0 0 0 0 0 0 0 0 0 0 0 0 0 0 0 0 0 0 0 0 0 0 0 0 0 0 0 0 0 0 0 0 0 0 0 0 0 0 0 0 0 0 0 0 0 0 0 0 0 0 0 0 0 0 0 0 0 0 0 0 0 0 0 0 0 0 0 0 0 0 0 0 0 0 0 0 0 0 0 0 0 0 0 0 0 0 0 0 0 0 0 0 0 0 0 0 0 0 0 0 0 0 0 0 0 0 0 0 0 0 0 0 0 0 0 0 0 0 0 0 0 0 0 0 0 0 0 0 0 0 0 0 0 0 0 0 0 0 0 0 0 0 0 0 0 0 0 0 0 0 0 0 0 0 0 0 0 0 0 0 0 0 0 0 0 0 0 0 0 0 0 0 0 0 0 0 0 0 0 0 0 0 0 0 0 0 0 0 0 0 0 0 0 0 0 0 0 0 0 0 0 0 0 0 0 0 0 0 0 0 0 0 0 0 0 0 0 0 0 0 0 0 0 0 0 0 0 0 0 0 0 0 0 0 0 0 0 0 0 0 0 0 0 0 0 0 0 
0.02 0.02 0.02 0.02 0.02 0.02 0.02 0.02 0.02 0.02 0.02 0.02 0.02 0.02 0.02 0.02 0.02 0.02 0.02 0.02 0.02 0.02 0.02 0.02 0.02 0.02 0.02 0.02 0.02 0.02 0.02 0.02 0.02 0.02 0.02 0.02 0.02 0.02 0.02 0.02 0.02 0.02 0.02 0.02 0.02 0.02 0.02 0.02 0.02 0.02 0.02 0.02 0.02 0.02 0.0199999 0.0199999 0.0199999 0.0199999 0.0199999 0.0199999 0.0199999 0.0199999 0.0199998 0.0199998 0.0199998 0.0199998 0.0199998 0.0199997 0.0199997 0.0199996 0.0199996 0.0199996 0.0199995 0.0199995 0.0199994 0.0199993 0.0199992 0.0199992 0.0199991 0.019999 0.0199989 0.0199987 0.0199986 0.0199985 0.0199983 0.0199981 0.019998 0.0199978 0.0199975 0.0199973 0.0199971 0.0199968 0.0199965 0.0199962 0.0199958 0.0199955 0.0199951 0.0199947 0.0199942 0.0199938 0.0199933 0.0199927 0.0199922 0.0199916 0.0199909 0.0199903 0.0199896 0.0199889 0.0199882 0.0199874 0.0199866 0.0199858 0.0199849 0.0199841 0.0199832 0.0199824 0.0199815 0.0199807 0.0199799 0.0199791 0.0199784 0.0199777 0.0199771 0.0199766 0.0199762 0.019976 0.0199759 0.0199761 0.0199764 0.019977 0.0199779 0.0199791 0.0199806 0.0199826 0.019985 0.0199879 0.0199914 0.0199954 0.0200001 0.0200055 0.0200116 0.0200185 0.0200263 0.020035 0.0200447 0.0200553 0.020067 0.0200798 0.0200937 0.0201088 0.0201252 0.0201427 0.0201615 0.0201815 0.0202028 0.0202254 0.0202493 0.0202744 0.0203007 0.0203283 0.020357 0.0203869 0.0204178 0.0204498 0.0204827 0.0205165 0.0205506 0.0205838 0.0206175 0.0206524 0.0206883 0.0207249 0.020762 0.0207994 0.0208371 0.0208749 0.0209128 0.0209506 0.0209884 0.021026 0.0210633 0.0211004 0.021137 0.0211731 0.0212087 0.0212436 0.0212778 0.0213112 0.0213437 0.0213752 0.0214056 0.0214349 0.0214629 0.0214895 0.0215146 0.021538 0.0215597 0.0215795 0.0215973 0.0216129 0.0216261 0.0216368 0.0216448 0.0216499 0.0216519 0.0216507 0.021646 0.0216377 0.0216254 0.021609 0.0215882 0.0215627 0.0215324 0.021497 0.0214562 0.0214094 0.0213567 0.021301 0.0212401 0.0211795 0.0211147 0.0210458 0.020973 0.0208964 0.0208164 0.0207331 0.0206468 0.0205577 0.0204662 0.0203724 0.0202766 0.0201788 0.0200793 0.0199782 0.0198756 0.0197715 0.0196661 0.0195594 0.0194515 0.0193425 0.0192325 0.0191217 0.01901 0.0188974 0.0187812 0.0186484 0.0185147 0.0183791 0.01824 0.0180938 0.0179386 0.0177739 0.0175988 0.0174118 0.0172111 0.0169943 0.0167585 0.0165005 0.0162218 0.0159326 0.0155962 0.0152956 0.0152099 0.0177742 0 0 0 0 0 0 0 0 0 0 0 0 0 0 0 0 0 0 0 0 0 0 0 0 0 0 0 0 0 0 0 0 0 0 0 0 0 0 0 0 0 0 0 0 0 0 0 0 0 0 0 0 0 0 0 0 0 0 0 0 0 0 0 0 0 0 0 0 0 0 0 0 0 0 0 0 0 0 0 0 0 0 0 0 0 0 0 0 0 0 0 0 0 0 0 0 0 0 0 0 0 0 0 0 0 0 0 0 0 0 0 0 0 0 0 0 0 0 0 0 0 0 0 0 0 0 0 0 0 0 0 0 0 0 0 0 0 0 0 0 0 0 0 0 0 0 0 0 0 0 0 0 0 0 0 0 0 0 0 0 0 0 0 0 0 0 0 0 0 0 0 0 0 0 0 0 0 0 0 0 0 0 0 0 0 0 0 0 0 0 0 0 0 0 0 0 0 0 0 0 0 0 0 0 0 0 0 0 0 0 0 0 0 0 0 0 0 0 0 0 0 0 0 0 0 0 0 0 0 0 0 0 0 0 0 0 0 0 0 0 0 0 0 0 0 0 0 0 0 0 0 0 0 0 0 0 0 0 0 0 0 0 0 0 0 0 0 0 0 0 0 0 0 0 0 0 0 0 0 0 0 0 0 0 0 0 0 0 0 0 0 0 0 0 0 0 0 0 0 0 0 0 0 0 0 0 0 0 0 0 0 0 0 0 0 0 0 0 0 0 0 0 0 0 0 0 0 0 0 0 0 0 0 0 0 0 0 0 0 0 0 0 0 0 0 0 0 0 0 0 0 0 0 0 0 0 0 
0.02 0.02 0.02 0.02 0.02 0.02 0.02 0.02 0.02 0.02 0.02 0.02 0.02 0.02 0.02 0.02 0.02 0.02 0.02 0.02 0.02 0.02 0.02 0.02 0.02 0.02 0.02 0.02 0.02 0.02 0.02 0.02 0.02 0.02 0.02 0.02 0.02 0.02 0.02 0.02 0.02 0.02 0.02 0.02 0.02 0.02 0.02 0.02 0.02 0.02 0.02 0.02 0.02 0.02 0.0199999 0.0199999 0.0199999 0.0199999 0.0199999 0.0199999 0.0199999 0.0199999 0.0199999 0.0199998 0.0199998 0.0199998 0.0199998 0.0199997 0.0199997 0.0199997 0.0199996 0.0199996 0.0199995 0.0199995 0.0199994 0.0199993 0.0199993 0.0199992 0.0199991 0.019999 0.0199989 0.0199988 0.0199986 0.0199985 0.0199983 0.0199982 0.019998 0.0199978 0.0199976 0.0199974 0.0199971 0.0199968 0.0199966 0.0199963 0.0199959 0.0199956 0.0199952 0.0199948 0.0199943 0.0199939 0.0199934 0.0199929 0.0199923 0.0199917 0.0199911 0.0199905 0.0199898 0.0199891 0.0199884 0.0199876 0.0199869 0.0199861 0.0199852 0.0199844 0.0199836 0.0199827 0.0199819 0.0199811 0.0199803 0.0199795 0.0199788 0.0199781 0.0199776 0.0199771 0.0199767 0.0199765 0.0199764 0.0199766 0.0199769 0.0199775 0.0199784 0.0199796 0.0199811 0.0199831 0.0199855 0.0199884 0.0199918 0.0199958 0.0200004 0.0200058 0.0200118 0.0200187 0.0200264 0.020035 0.0200446 0.0200551 0.0200667 0.0200794 0.0200932 0.0201082 0.0201244 0.0201417 0.0201604 0.0201802 0.0202013 0.0202237 0.0202474 0.0202723 0.0202984 0.0203257 0.0203541 0.0203837 0.0204144 0.0204461 0.0204787 0.0205122 0.0205461 0.0205799 0.020614 0.0206488 0.0206845 0.0207209 0.0207577 0.0207948 0.0208323 0.0208699 0.0209075 0.0209452 0.0209828 0.0210202 0.0210573 0.0210942 0.0211306 0.0211666 0.021202 0.0212367 0.0212708 0.0213041 0.0213364 0.0213678 0.0213982 0.0214273 0.0214552 0.0214817 0.0215068 0.0215302 0.0215518 0.0215716 0.0215893 0.0216049 0.0216181 0.0216288 0.0216367 0.0216418 0.0216438 0.0216426 0.0216378 0.0216293 0.0216168 0.0216001 0.021579 0.0215532 0.0215226 0.0214868 0.021446 0.0214007 0.0213503 0.0212962 0.0212401 0.0211802 0.021116 0.0210477 0.0209755 0.0208996 0.0208201 0.0207374 0.0206516 0.020563 0.0204719 0.0203784 0.0202828 0.0201852 0.0200857 0.0199845 0.0198817 0.0197774 0.0196717 0.0195647 0.0194565 0.0193472 0.0192369 0.0191257 0.0190137 0.0189004 0.0187834 0.0186575 0.0185244 0.0183883 0.0182475 0.0180999 0.0179438 0.0177783 0.0176023 0.0174144 0.0172127 0.0169951 0.0167585 0.0165002 0.0162227 0.0159433 0.0156538 0.0153407 0.0152459 0.0154844 0.0151844 0.0144404 0.0138635 0.0132834 0.0126708 0.0119469 0.0110709 0.0100979 0.00915616 0.00837466 0.00898558 0 0 0 0 0 0 0 0 0 0 0 0 0 0 0 0 0 0 0 0 0 0 0 0 0 0 0 0 0 0 0 0 0 0 0 0 0 0 0 0 0 0 0 0 0 0 0 0 0 0 0 0 0 0 0 0 0 0 0 0 0 0 0 0 0 0 0 0 0 0 0 0 0 0 0 0 0 0 0 0 0 0 0 0 0 0 0 0 0 0 0 0 0 0 0 0 0 0 0 0 0 0 0 0 0 0 0 0 0 0 0 0 0 0 0 0 0 0 0 0 0 0 0 0 0 0 0 0 0 0 0 0 0 0 0 0 0 0 0 0 0 0 0 0 0 0 0 0 0 0 0 0 0 0 0 0 0 0 0 0 0 0 0 0 0 0 0 0 0 0 0 0 0 0 0 0 0 0 0 0 0 0 0 0 0 0 0 0 0 0 0 0 0 0 0 0 0 0 0 0 0 0 0 0 0 0 0 0 0 0 0 0 0 0 0 0 0 0 0 0 0 0 0 0 0 0 0 0 0 0 0 0 0 0 0 0 0 0 0 0 0 0 0 0 0 0 0 0 0 0 0 0 0 0 0 0 0 0 0 0 0 0 0 0 0 0 0 0 0 0 0 0 0 0 0 0 0 0 0 0 0 0 0 0 0 0 0 0 0 0 0 0 0 0 0 0 0 0 0 0 0 0 0 0 0 0 0 0 0 0 0 0 0 0 0 0 0 0 0 0 0 0 0 0 0 0 0 0 0 0 0 0 0 0 0 0 0 0 0 0 0 0 0 0 0 0 
0.02 0.02 0.02 0.02 0.02 0.02 0.02 0.02 0.02 0.02 0.02 0.02 0.02 0.02 0.02 0.02 0.02 0.02 0.02 0.02 0.02 0.02 0.02 0.02 0.02 0.02 0.02 0.02 0.02 0.02 0.02 0.02 0.02 0.02 0.02 0.02 0.02 0.02 0.02 0.02 0.02 0.02 0.02 0.02 0.02 0.02 0.02 0.02 0.02 0.02 0.02 0.02 0.02 0.02 0.0199999 0.0199999 0.0199999 0.0199999 0.0199999 0.0199999 0.0199999 0.0199999 0.0199999 0.0199998 0.0199998 0.0199998 0.0199998 0.0199997 0.0199997 0.0199997 0.0199996 0.0199996 0.0199995 0.0199995 0.0199994 0.0199993 0.0199993 0.0199992 0.0199991 0.019999 0.0199989 0.0199988 0.0199987 0.0199985 0.0199984 0.0199982 0.019998 0.0199978 0.0199976 0.0199974 0.0199972 0.0199969 0.0199966 0.0199963 0.019996 0.0199956 0.0199953 0.0199949 0.0199945 0.019994 0.0199935 0.019993 0.0199925 0.0199919 0.0199913 0.0199907 0.01999 0.0199893 0.0199886 0.0199879 0.0199871 0.0199863 0.0199855 0.0199847 0.0199839 0.0199831 0.0199823 0.0199815 0.0199807 0.01998 0.0199793 0.0199786 0.0199781 0.0199776 0.0199773 0.0199771 0.019977 0.0199772 0.0199775 0.0199781 0.019979 0.0199802 0.0199818 0.0199837 0.0199861 0.019989 0.0199924 0.0199964 0.020001 0.0200063 0.0200124 0.0200192 0.0200269 0.0200354 0.0200449 0.0200554 0.0200669 0.0200795 0.0200932 0.0201081 0.0201241 0.0201414 0.0201598 0.0201795 0.0202005 0.0202227 0.0202461 0.0202708 0.0202967 0.0203238 0.020352 0.0203813 0.0204117 0.0204431 0.0204754 0.0205086 0.0205423 0.0205764 0.0206106 0.0206453 0.0206807 0.0207166 0.0207531 0.0207899 0.0208269 0.0208641 0.0209014 0.0209387 0.0209759 0.0210129 0.0210497 0.0210862 0.0211222 0.0211578 0.0211928 0.0212272 0.0212609 0.0212937 0.0213257 0.0213567 0.0213866 0.0214154 0.0214429 0.021469 0.0214937 0.0215167 0.021538 0.0215574 0.0215747 0.0215899 0.0216027 0.021613 0.0216206 0.0216253 0.0216269 0.0216251 0.0216198 0.0216107 0.0215976 0.0215803 0.0215586 0.0215324 0.0215016 0.0214662 0.0214265 0.0213821 0.0213344 0.0212835 0.0212286 0.0211695 0.0211062 0.0210389 0.0209677 0.0208929 0.0208146 0.0207331 0.0206485 0.0205611 0.0204711 0.0203788 0.0202842 0.0201876 0.0200891 0.0199888 0.0198868 0.0197833 0.0196783 0.0195719 0.0194644 0.0193559 0.0192464 0.019136 0.0190246 0.0189116 0.0187948 0.0186714 0.0185398 0.018403 0.0182609 0.0181119 0.0179549 0.0177887 0.0176121 0.0174234 0.0172209 0.0170025 0.0167658 0.0165097 0.0162393 0.0159812 0.0157352 0.0154848 0.0153385 0.0152169 0.0149305 0.0143688 0.0138189 0.013222 0.012587 0.0118448 0.0110087 0.0101274 0.00921764 0.0083949 0.00776826 0.00675745 0.0054454 0.00412327 0.00269933 0.00128487 4.25229e-05 -0.00157453 0 0 0 0 0 0 0 0 0 0 0 0 0 0 0 0 0 0 0 0 0 0 0 0 0 0 0 0 0 0 0 0 0 0 0 0 0 0 0 0 0 0 0 0 0 0 0 0 0 0 0 0 0 0 0 0 0 0 0 0 0 0 0 0 0 0 0 0 0 0 0 0 0 0 0 0 0 0 0 0 0 0 0 0 0 0 0 0 0 0 0 0 0 0 0 0 0 0 0 0 0 0 0 0 0 0 0 0 0 0 0 0 0 0 0 0 0 0 0 0 0 0 0 0 0 0 0 0 0 0 0 0 0 0 0 0 0 0 0 0 0 0 0 0 0 0 0 0 0 0 0 0 0 0 0 0 0 0 0 0 0 0 0 0 0 0 0 0 0 0 0 0 0 0 0 0 0 0 0 0 0 0 0 0 0 0 0 0 0 0 0 0 0 0 0 0 0 0 0 0 0 0 0 0 0 0 0 0 0 0 0 0 0 0 0 0 0 0 0 0 0 0 0 0 0 0 0 0 0 0 0 0 0 0 0 0 0 0 0 0 0 0 0 0 0 0 0 0 0 0 0 0 0 0 0 0 0 0 0 0 0 0 0 0 0 0 0 0 0 0 0 0 0 0 0 0 0 0 0 0 0 0 0 0 0 0 0 0 0 0 0 0 0 0 0 0 0 0 0 0 0 0 0 0 0 0 0 0 0 0 0 0 0 0 0 0 0 0 0 0 0 0 0 0 0 0 0 0 0 0 0 0 0 0 0 0 0 0 -2.1684e-19 
0.02 0.02 0.02 0.02 0.02 0.02 0.02 0.02 0.02 0.02 0.02 0.02 0.02 0.02 0.02 0.02 0.02 0.02 0.02 0.02 0.02 0.02 0.02 0.02 0.02 0.02 0.02 0.02 0.02 0.02 0.02 0.02 0.02 0.02 0.02 0.02 0.02 0.02 0.02 0.02 0.02 0.02 0.02 0.02 0.02 0.02 0.02 0.02 0.02 0.02 0.02 0.02 0.02 0.02 0.0199999 0.0199999 0.0199999 0.0199999 0.0199999 0.0199999 0.0199999 0.0199999 0.0199999 0.0199998 0.0199998 0.0199998 0.0199998 0.0199997 0.0199997 0.0199997 0.0199996 0.0199996 0.0199995 0.0199995 0.0199994 0.0199994 0.0199993 0.0199992 0.0199991 0.019999 0.0199989 0.0199988 0.0199987 0.0199986 0.0199984 0.0199983 0.0199981 0.0199979 0.0199977 0.0199975 0.0199972 0.019997 0.0199967 0.0199964 0.0199961 0.0199958 0.0199954 0.019995 0.0199946 0.0199942 0.0199937 0.0199932 0.0199927 0.0199921 0.0199916 0.0199909 0.0199903 0.0199896 0.0199889 0.0199882 0.0199875 0.0199867 0.019986 0.0199852 0.0199844 0.0199836 0.0199828 0.019982 0.0199813 0.0199806 0.0199799 0.0199793 0.0199788 0.0199784 0.0199781 0.0199779 0.0199779 0.019978 0.0199784 0.0199791 0.01998 0.0199812 0.0199828 0.0199847 0.0199871 0.01999 0.0199934 0.0199974 0.020002 0.0200073 0.0200133 0.0200201 0.0200277 0.0200362 0.0200456 0.020056 0.0200674 0.0200799 0.0200935 0.0201082 0.0201241 0.0201412 0.0201595 0.020179 0.0201997 0.0202217 0.0202449 0.0202693 0.0202949 0.0203216 0.0203495 0.0203785 0.0204085 0.0204395 0.0204715 0.0205042 0.0205377 0.0205716 0.0206058 0.0206403 0.0206754 0.0207109 0.0207468 0.0207831 0.0208196 0.0208563 0.020893 0.0209298 0.0209664 0.0210028 0.0210391 0.0210749 0.0211104 0.0211454 0.0211798 0.0212135 0.0212466 0.0212788 0.0213102 0.0213406 0.0213699 0.021398 0.0214249 0.0214504 0.0214744 0.0214968 0.0215174 0.0215362 0.0215529 0.0215675 0.0215797 0.0215893 0.0215962 0.0216002 0.0216011 0.0215987 0.0215927 0.021583 0.0215693 0.0215516 0.0215298 0.0215037 0.0214735 0.0214392 0.0214009 0.021359 0.0213134 0.0212637 0.0212099 0.021152 0.02109 0.0210241 0.0209544 0.0208811 0.0208045 0.0207246 0.0206418 0.0205562 0.020468 0.0203774 0.0202845 0.0201895 0.0200926 0.0199938 0.0198933 0.0197912 0.0196876 0.0195827 0.0194766 0.0193694 0.0192613 0.0191522 0.0190418 0.0189293 0.0188128 0.0186901 0.0185601 0.0184234 0.0182804 0.0181305 0.0179727 0.0178058 0.0176285 0.0174392 0.0172359 0.0170173 0.0167824 0.0165313 0.0162732 0.0160324 0.0158306 0.0156233 0.0153496 0.0151687 0.0148009 0.0143139 0.0137838 0.0131879 0.0125334 0.0117885 0.010981 0.0101448 0.00927998 0.00843888 0.007583 0.00656898 0.00534323 0.00405049 0.00268584 0.00130265 -0.000115605 -0.0017386 -0.00348486 -0.00530725 -0.00719611 -0.0099876 -0.0113352 0 0 0 0 0 0 0 0 0 0 0 0 0 0 0 0 0 0 0 0 0 0 0 0 0 0 0 0 0 0 0 0 0 0 0 0 0 0 0 0 0 0 0 0 0 0 0 0 0 0 0 0 0 0 0 0 0 0 0 0 0 0 0 0 0 0 0 0 0 0 0 0 0 0 0 0 0 0 0 0 0 0 0 0 0 0 0 0 0 0 0 0 0 0 0 0 0 0 0 0 0 0 0 0 0 0 0 0 0 0 0 0 0 0 0 0 0 0 0 0 0 0 0 0 0 0 0 0 0 0 0 0 0 0 0 0 0 0 0 0 0 0 0 0 0 0 0 0 0 0 0 0 0 0 0 0 0 0 0 0 0 0 0 0 0 0 0 0 0 0 0 0 0 0 0 0 0 0 0 0 0 0 0 0 0 0 0 0 0 0 0 0 0 0 0 0 0 0 0 0 0 0 0 0 0 0 0 0 0 0 0 0 0 0 0 0 0 0 0 0 0 0 0 0 0 0 0 0 0 0 0 0 0 0 0 0 0 0 0 0 0 0 0 0 0 0 0 0 0 0 0 0 0 0 0 0 0 0 0 0 0 0 0 0 0 0 0 0 0 0 0 0 0 0 0 0 0 0 0 0 0 0 0 0 0 0 0 0 0 0 0 0 0 0 0 0 0 0 0 0 0 0 0 0 0 0 0 0 0 0 0 0 0 0 0 0 0 0 0 0 0 0 0 0 0 0 0 0 0 0 0 0 0 -2.1684e-19 
0.02 0.02 0.02 0.02 0.02 0.02 0.02 0.02 0.02 0.02 0.02 0.02 0.02 0.02 0.02 0.02 0.02 0.02 0.02 0.02 0.02 0.02 0.02 0.02 0.02 0.02 0.02 0.02 0.02 0.02 0.02 0.02 0.02 0.02 0.02 0.02 0.02 0.02 0.02 0.02 0.02 0.02 0.02 0.02 0.02 0.02 0.02 0.02 0.02 0.02 0.02 0.02 0.02 0.02 0.02 0.0199999 0.0199999 0.0199999 0.0199999 0.0199999 0.0199999 0.0199999 0.0199999 0.0199998 0.0199998 0.0199998 0.0199998 0.0199997 0.0199997 0.0199997 0.0199996 0.0199996 0.0199996 0.0199995 0.0199994 0.0199994 0.0199993 0.0199992 0.0199992 0.0199991 0.019999 0.0199989 0.0199987 0.0199986 0.0199985 0.0199983 0.0199981 0.019998 0.0199978 0.0199976 0.0199973 0.0199971 0.0199968 0.0199965 0.0199962 0.0199959 0.0199956 0.0199952 0.0199948 0.0199944 0.0199939 0.0199935 0.019993 0.0199924 0.0199919 0.0199913 0.0199907 0.01999 0.0199894 0.0199887 0.019988 0.0199873 0.0199865 0.0199858 0.019985 0.0199843 0.0199835 0.0199828 0.0199821 0.0199814 0.0199808 0.0199803 0.0199798 0.0199794 0.0199791 0.019979 0.019979 0.0199792 0.0199796 0.0199803 0.0199812 0.0199825 0.0199841 0.0199861 0.0199885 0.0199914 0.0199948 0.0199988 0.0200033 0.0200086 0.0200146 0.0200213 0.0200288 0.0200373 0.0200466 0.0200569 0.0200682 0.0200805 0.020094 0.0201085 0.0201242 0.020141 0.0201591 0.0201783 0.0201988 0.0202205 0.0202433 0.0202674 0.0202926 0.020319 0.0203465 0.020375 0.0204046 0.0204351 0.0204665 0.0204988 0.0205317 0.0205653 0.0205992 0.0206335 0.0206681 0.0207031 0.0207384 0.020774 0.0208099 0.0208459 0.0208819 0.0209179 0.0209538 0.0209895 0.0210249 0.02106 0.0210947 0.0211289 0.0211625 0.0211954 0.0212276 0.021259 0.0212895 0.0213191 0.0213475 0.0213748 0.0214008 0.0214255 0.0214486 0.0214702 0.02149 0.0215079 0.0215237 0.0215374 0.0215488 0.0215576 0.0215637 0.0215669 0.0215671 0.021564 0.0215574 0.0215473 0.0215335 0.0215159 0.0214945 0.0214693 0.0214403 0.0214075 0.021371 0.0213307 0.0212864 0.021238 0.0211856 0.0211292 0.0210688 0.0210047 0.020937 0.0208657 0.0207912 0.0207136 0.020633 0.0205496 0.0204637 0.0203753 0.0202847 0.020192 0.0200972 0.0200005 0.0199021 0.019802 0.0197004 0.0195974 0.0194933 0.019388 0.0192817 0.0191741 0.0190649 0.0189529 0.0188366 0.0187144 0.0185851 0.0184488 0.0183056 0.0181553 0.017997 0.0178296 0.0176518 0.0174619 0.0172584 0.0170406 0.0168095 0.0165673 0.0163231 0.016095 0.0158985 0.015718 0.0154922 0.0151686 0.0147583 0.0142854 0.0137585 0.0131611 0.0124951 0.0117578 0.0109731 0.0101674 0.00932836 0.00842139 0.00750068 0.0064317 0.00524501 0.00397635 0.00263823 0.00124505 -0.000219635 -0.00181283 -0.00349774 -0.00525827 -0.00710882 -0.00923848 -0.0115198 -0.013658 -0.0158921 -0.0186393 -0.0227594 0 0 0 0 0 0 0 0 0 0 0 0 0 0 0 0 0 0 0 0 0 0 0 0 0 0 0 0 0 0 0 0 0 0 0 0 0 0 0 0 0 0 0 0 0 0 0 0 0 0 0 0 0 0 0 0 0 0 0 0 0 0 0 0 0 0 0 0 0 0 0 0 0 0 0 0 0 0 0 0 0 0 0 0 0 0 0 0 0 0 0 0 0 0 0 0 0 0 0 0 0 0 0 0 0 0 0 0 0 0 0 0 0 0 0 0 0 0 0 0 0 0 0 0 0 0 0 0 0 0 0 0 0 0 0 0 0 0 0 0 0 0 0 0 0 0 0 0 0 0 0 0 0 0 0 0 0 0 0 0 0 0 0 0 0 0 0 0 0 0 0 0 0 0 0 0 0 0 0 0 0 0 0 0 0 0 0 0 0 0 0 0 0 0 0 0 0 0 0 0 0 0 0 0 0 0 0 0 0 0 0 0 0 0 0 0 0 0 0 0 0 0 0 0 0 0 0 0 0 0 0 0 0 0 0 0 0 0 0 0 0 0 0 0 0 0 0 0 0 0 0 0 0 0 0 0 0 0 0 0 0 0 0 0 0 0 0 0 0 0 0 0 0 0 0 0 0 0 0 0 0 0 0 0 0 0 0 0 0 0 0 0 0 0 0 0 0 0 0 0 0 0 0 0 0 0 0 0 0 0 0 0 0 0 0 0 0 0 0 0 0 0 0 0 0 0 0 0 -0.00494952 2.1684e-19 
0.02 0.02 0.02 0.02 0.02 0.02 0.02 0.02 0.02 0.02 0.02 0.02 0.02 0.02 0.02 0.02 0.02 0.02 0.02 0.02 0.02 0.02 0.02 0.02 0.02 0.02 0.02 0.02 0.02 0.02 0.02 0.02 0.02 0.02 0.02 0.02 0.02 0.02 0.02 0.02 0.02 0.02 0.02 0.02 0.02 0.02 0.02 0.02 0.02 0.02 0.02 0.02 0.02 0.02 0.02 0.0199999 0.0199999 0.0199999 0.0199999 0.0199999 0.0199999 0.0199999 0.0199999 0.0199998 0.0199998 0.0199998 0.0199998 0.0199998 0.0199997 0.0199997 0.0199997 0.0199996 0.0199996 0.0199995 0.0199995 0.0199994 0.0199993 0.0199993 0.0199992 0.0199991 0.019999 0.0199989 0.0199988 0.0199987 0.0199985 0.0199984 0.0199982 0.0199981 0.0199979 0.0199977 0.0199975 0.0199972 0.019997 0.0199967 0.0199964 0.0199961 0.0199958 0.0199954 0.0199951 0.0199947 0.0199942 0.0199938 0.0199933 0.0199928 0.0199923 0.0199917 0.0199911 0.0199905 0.0199899 0.0199893 0.0199886 0.0199879 0.0199872 0.0199865 0.0199858 0.0199851 0.0199844 0.0199838 0.0199831 0.0199825 0.0199819 0.0199814 0.019981 0.0199807 0.0199805 0.0199804 0.0199804 0.0199807 0.0199812 0.0199819 0.0199829 0.0199841 0.0199858 0.0199878 0.0199902 0.0199931 0.0199965 0.0200005 0.020005 0.0200103 0.0200162 0.0200228 0.0200303 0.0200386 0.0200479 0.020058 0.0200692 0.0200813 0.0200946 0.0201089 0.0201244 0.0201409 0.0201587 0.0201776 0.0201978 0.0202191 0.0202415 0.0202652 0.0202899 0.0203158 0.0203428 0.0203708 0.0203998 0.0204297 0.0204605 0.0204921 0.0205244 0.0205573 0.0205907 0.0206245 0.0206586 0.020693 0.0207277 0.0207625 0.0207976 0.0208327 0.0208679 0.020903 0.0209379 0.0209727 0.0210072 0.0210413 0.021075 0.0211081 0.0211407 0.0211726 0.0212038 0.0212342 0.0212636 0.0212921 0.0213195 0.0213457 0.0213706 0.0213942 0.0214163 0.0214368 0.0214555 0.0214724 0.0214873 0.0215 0.0215104 0.0215183 0.0215236 0.0215261 0.0215256 0.021522 0.0215152 0.0215051 0.0214916 0.0214746 0.021454 0.0214299 0.0214022 0.0213708 0.0213357 0.0212968 0.0212539 0.021207 0.0211563 0.0211018 0.0210435 0.0209816 0.0209162 0.0208474 0.0207754 0.0207004 0.0206225 0.0205419 0.0204587 0.0203731 0.0202853 0.0201952 0.0201032 0.0200091 0.0199133 0.0198158 0.0197167 0.0196163 0.0195145 0.0194115 0.0193072 0.0192013 0.0190932 0.0189819 0.0188658 0.0187438 0.0186151 0.0184792 0.0183363 0.018186 0.0180274 0.0178597 0.0176815 0.0174915 0.0172887 0.0170732 0.0168478 0.0166167 0.0163857 0.0161645 0.0159548 0.0157421 0.0154841 0.0151525 0.0147466 0.0142748 0.0137398 0.0131381 0.0124709 0.0117451 0.0109752 0.0101764 0.00934359 0.00844295 0.00744143 0.00634054 0.00515999 0.00390417 0.00257484 0.00115932 -0.000328315 -0.00192858 -0.00360043 -0.00534188 -0.00727049 -0.00925916 -0.0114153 -0.0134945 -0.0157334 -0.017459 -0.0210015 -0.0234961 -0.0257285 -0.0285733 -0.0348108 0 0 0 0 0 0 0 0 0 0 0 0 0 0 0 0 0 0 0 0 0 0 0 0 0 0 0 0 0 0 0 0 0 0 0 0 0 0 0 0 0 0 0 0 0 0 0 0 0 0 0 0 0 0 0 0 0 0 0 0 0 0 0 0 0 0 0 0 0 0 0 0 0 0 0 0 0 0 0 0 0 0 0 0 0 0 0 0 0 0 0 0 0 0 0 0 0 0 0 0 0 0 0 0 0 0 0 0 0 0 0 0 0 0 0 0 0 0 0 0 0 0 0 0 0 0 0 0 0 0 0 0 0 0 0 0 0 0 0 0 0 0 0 0 0 0 0 0 0 0 0 0 0 0 0 0 0 0 0 0 0 0 0 0 0 0 0 0 0 0 0 0 0 0 0 0 0 0 0 0 0 0 0 0 0 0 0 0 0 0 0 0 0 0 0 0 0 0 0 0 0 0 0 0 0 0 0 0 0 0 0 0 0 0 0 0 0 0 0 0 0 0 0 0 0 0 0 0 0 0 0 0 0 0 0 0 0 0 0 0 0 0 0 0 0 0 0 0 0 0 0 0 0 0 0 0 0 0 0 0 0 0 0 0 0 0 0 0 0 0 0 0 0 0 0 0 0 0 0 0 0 0 0 0 0 0 0 0 0 0 0 0 0 0 0 0 0 0 0 0 0 0 0 0 0 0 0 0 0 0 0 0 0 0 0 0 0 0 0 0 0 0 0 -0.0173241 -0.00888604 -1.51788e-18 
0.02 0.02 0.02 0.02 0.02 0.02 0.02 0.02 0.02 0.02 0.02 0.02 0.02 0.02 0.02 0.02 0.02 0.02 0.02 0.02 0.02 0.02 0.02 0.02 0.02 0.02 0.02 0.02 0.02 0.02 0.02 0.02 0.02 0.02 0.02 0.02 0.02 0.02 0.02 0.02 0.02 0.02 0.02 0.02 0.02 0.02 0.02 0.02 0.02 0.02 0.02 0.02 0.02 0.02 0.02 0.0199999 0.0199999 0.0199999 0.0199999 0.0199999 0.0199999 0.0199999 0.0199999 0.0199999 0.0199998 0.0199998 0.0199998 0.0199998 0.0199997 0.0199997 0.0199997 0.0199996 0.0199996 0.0199995 0.0199995 0.0199994 0.0199994 0.0199993 0.0199992 0.0199992 0.0199991 0.019999 0.0199989 0.0199987 0.0199986 0.0199985 0.0199983 0.0199982 0.019998 0.0199978 0.0199976 0.0199974 0.0199972 0.0199969 0.0199966 0.0199963 0.019996 0.0199957 0.0199954 0.019995 0.0199946 0.0199942 0.0199937 0.0199933 0.0199928 0.0199922 0.0199917 0.0199911 0.0199906 0.01999 0.0199893 0.0199887 0.0199881 0.0199874 0.0199868 0.0199861 0.0199855 0.0199849 0.0199843 0.0199837 0.0199832 0.0199828 0.0199825 0.0199822 0.019982 0.019982 0.0199822 0.0199825 0.019983 0.0199838 0.0199848 0.0199861 0.0199878 0.0199898 0.0199923 0.0199952 0.0199986 0.0200025 0.0200071 0.0200122 0.0200181 0.0200247 0.0200321 0.0200403 0.0200494 0.0200594 0.0200704 0.0200823 0.0200953 0.0201094 0.0201246 0.0201409 0.0201583 0.0201768 0.0201965 0.0202174 0.0202394 0.0202625 0.0202867 0.020312 0.0203384 0.0203658 0.0203941 0.0204233 0.0204533 0.0204841 0.0205157 0.0205478 0.0205805 0.0206135 0.0206469 0.0206805 0.0207144 0.0207484 0.0207825 0.0208167 0.0208508 0.0208848 0.0209187 0.0209524 0.0209857 0.0210187 0.0210512 0.0210831 0.0211145 0.0211452 0.0211751 0.0212042 0.0212324 0.0212596 0.0212857 0.0213107 0.0213344 0.0213567 0.0213775 0.0213968 0.0214144 0.0214301 0.0214439 0.0214556 0.021465 0.0214721 0.0214766 0.0214785 0.0214777 0.0214739 0.0214672 0.0214573 0.0214443 0.021428 0.0214084 0.0213854 0.0213589 0.0213288 0.021295 0.0212575 0.0212163 0.0211713 0.0211227 0.0210704 0.0210145 0.0209551 0.0208924 0.0208265 0.0207575 0.0206855 0.0206108 0.0205333 0.0204534 0.020371 0.0202864 0.0201996 0.0201107 0.0200198 0.0199271 0.0198327 0.0197366 0.019639 0.01954 0.0194395 0.0193374 0.0192332 0.0191263 0.0190156 0.0188999 0.0187783 0.01865 0.0185147 0.0183722 0.0182221 0.0180636 0.0178959 0.0177177 0.0175283 0.0173273 0.0171156 0.0168968 0.0166757 0.0164556 0.0162368 0.0160149 0.0157726 0.0154912 0.0151481 0.0147389 0.0142645 0.0137249 0.0131215 0.012458 0.0117419 0.0109791 0.010174 0.00931708 0.00839247 0.00737895 0.00627586 0.00509088 0.00382957 0.0024917 0.00107124 -0.000442712 -0.00204752 -0.00374376 -0.00551708 -0.00738052 -0.00942622 -0.0114793 -0.0136235 -0.0158609 -0.0183454 -0.0207518 -0.0231086 -0.0249921 -0.0278025 -0.0314252 -0.0340382 -0.0360463 -0.0376981 -0.0410778 -0.0488675 0 0 0 0 0 0 0 0 0 0 0 0 0 0 0 0 0 0 0 0 0 0 0 0 0 0 0 0 0 0 0 0 0 0 0 0 0 0 0 0 0 0 0 0 0 0 0 0 0 0 0 0 0 0 0 0 0 0 0 0 0 0 0 0 0 0 0 0 0 0 0 0 0 0 0 0 0 0 0 0 0 0 0 0 0 0 0 0 0 0 0 0 0 0 0 0 0 0 0 0 0 0 0 0 0 0 0 0 0 0 0 0 0 0 0 0 0 0 0 0 0 0 0 0 0 0 0 0 0 0 0 0 0 0 0 0 0 0 0 0 0 0 0 0 0 0 0 0 0 0 0 0 0 0 0 0 0 0 0 0 0 0 0 0 0 0 0 0 0 0 0 0 0 0 0 0 0 0 0 0 0 0 0 0 0 0 0 0 0 0 0 0 0 0 0 0 0 0 0 0 0 0 0 0 0 0 0 0 0 0 0 0 0 0 0 0 0 0 0 0 0 0 0 0 0 0 0 0 0 0 0 0 0 0 0 0 0 0 0 0 0 0 0 0 0 0 0 0 0 0 0 0 0 0 0 0 0 0 0 0 0 0 0 0 0 0 0 0 0 0 0 0 0 0 0 0 0 0 0 0 0 0 0 0 0 0 0 0 0 0 0 0 0 0 0 0 0 0 0 0 0 0 0 0 0 0 0 0 0 0 0 0 0 0 0 0 -0.0359662 -0.0298649 -0.0214355 -0.0117263 4.33681e-19 
0.02 0.02 0.02 0.02 0.02 0.02 0.02 0.02 0.02 0.02 0.02 0.02 0.02 0.02 0.02 0.02 0.02 0.02 0.02 0.02 0.02 0.02 0.02 0.02 0.02 0.02 0.02 0.02 0.02 0.02 0.02 0.02 0.02 0.02 0.02 0.02 0.02 0.02 0.02 0.02 0.02 0.02 0.02 0.02 0.02 0.02 0.02 0.02 0.02 0.02 0.02 0.02 0.02 0.02 0.02 0.02 0.0199999 0.0199999 0.0199999 0.0199999 0.0199999 0.0199999 0.0199999 0.0199999 0.0199998 0.0199998 0.0199998 0.0199998 0.0199998 0.0199997 0.0199997 0.0199997 0.0199996 0.0199996 0.0199995 0.0199995 0.0199994 0.0199994 0.0199993 0.0199992 0.0199991 0.019999 0.0199989 0.0199988 0.0199987 0.0199986 0.0199984 0.0199983 0.0199981 0.019998 0.0199978 0.0199976 0.0199974 0.0199971 0.0199969 0.0199966 0.0199963 0.019996 0.0199957 0.0199954 0.019995 0.0199946 0.0199942 0.0199938 0.0199933 0.0199928 0.0199923 0.0199918 0.0199913 0.0199908 0.0199902 0.0199896 0.019989 0.0199885 0.0199879 0.0199873 0.0199867 0.0199862 0.0199857 0.0199852 0.0199848 0.0199844 0.0199841 0.0199839 0.0199839 0.0199839 0.0199841 0.0199845 0.0199851 0.0199859 0.019987 0.0199884 0.0199901 0.0199922 0.0199946 0.0199976 0.020001 0.0200049 0.0200094 0.0200145 0.0200203 0.0200268 0.0200341 0.0200422 0.0200511 0.020061 0.0200717 0.0200835 0.0200962 0.02011 0.0201248 0.0201407 0.0201577 0.0201759 0.0201951 0.0202155 0.0202369 0.0202594 0.020283 0.0203077 0.0203333 0.0203599 0.0203875 0.0204159 0.020445 0.020475 0.0205056 0.0205368 0.0205685 0.0206006 0.020633 0.0206657 0.0206986 0.0207316 0.0207646 0.0207977 0.0208306 0.0208635 0.0208961 0.0209285 0.0209605 0.0209921 0.0210232 0.0210538 0.0210838 0.021113 0.0211415 0.0211692 0.021196 0.0212217 0.0212464 0.0212699 0.0212922 0.0213132 0.0213327 0.0213506 0.021367 0.0213815 0.0213942 0.0214049 0.0214134 0.0214197 0.0214237 0.0214252 0.0214241 0.0214203 0.0214137 0.0214043 0.0213918 0.0213763 0.0213576 0.0213357 0.0213104 0.0212816 0.0212494 0.0212136 0.0211743 0.0211315 0.0210852 0.0210354 0.0209823 0.0209259 0.0208663 0.0208035 0.0207379 0.0206694 0.0205981 0.0205243 0.020448 0.0203693 0.0202883 0.0202051 0.0201199 0.0200327 0.0199435 0.0198525 0.0197598 0.0196655 0.0195695 0.0194717 0.0193718 0.0192694 0.0191636 0.0190537 0.0189386 0.0188174 0.0186897 0.0185551 0.0184132 0.0182635 0.0181053 0.0179379 0.0177603 0.0175723 0.0173743 0.0171677 0.0169557 0.0167422 0.0165288 0.0163109 0.0160791 0.0158203 0.0155169 0.0151587 0.0147405 0.0142602 0.0137171 0.0131134 0.0124536 0.0117429 0.0109825 0.0101694 0.00929646 0.00834993 0.00732253 0.00621288 0.00502194 0.00375223 0.00240078 0.000966324 -0.000556381 -0.00217351 -0.0038891 -0.00570821 -0.00761365 -0.00958664 -0.0116176 -0.0137828 -0.0160331 -0.0184135 -0.0207756 -0.0231569 -0.0254979 -0.0276724 -0.0308952 -0.033275 -0.0354664 -0.0368705 -0.0399076 -0.0441089 -0.046352 -0.0476521 -0.0484493 -0.0492032 -0.0515934 -0.0608955 -0.0582035 0 0 0 0 0 0 0 0 0 0 0 0 0 0 0 0 0 0 0 0 0 0 0 0 0 0 0 0 0 0 0 0 0 0 0 0 0 0 0 0 0 0 0 0 0 0 0 0 0 0 0 0 0 0 0 0 0 0 0 0 0 0 0 0 0 0 0 0 0 0 0 0 0 0 0 0 0 0 0 0 0 0 0 0 0 0 0 0 0 0 0 0 0 0 0 0 0 0 0 0 0 0 0 0 0 0 0 0 0 0 0 0 0 0 0 0 0 0 0 0 0 0 0 0 0 0 0 0 0 0 0 0 0 0 0 0 0 0 0 0 0 0 0 0 0 0 0 0 0 0 0 0 0 0 0 0 0 0 0 0 0 0 0 0 0 0 0 0 0 0 0 0 0 0 0 0 0 0 0 0 0 0 0 0 0 0 0 0 0 0 0 0 0 0 -0.048709 -0.0510968 -0.0519053 -0.0521971 -0.0522868 -0.0522931 -0.0522655 -0.0522253 -0.0521821 -0.05214 -0.0521009 -0.0520659 -0.0520358 -0.052011 -0.0519921 -0.0519794 -0.0519732 -0.0519736 -0.0519804 -0.0519937 -0.0520131 -0.0520383 -0.052069 -0.0521046 -0.0521444 -0.0521864 -0.0522261 -0.0522555 -0.0522646 -0.0522427 -0.052178 -0.0520782 -0.051999 -0.0520005 -0.051991 -0.0534838 -0.0619498 0 0 0 0 0 0 0 0 0 0 0 0 0 0 0 0 0 0 0 0 0 0 0 0 0 0 0 0 0 0 0 0 0 0 0 0 0 0 0 0 0 0 0 0 0 0 0 0 0 0 0 0 0 0 0 0 0 0 0 0 0 0 0 0 0 0 0 0 0 0 -0.0506517 -0.0534076 -0.0540623 -0.0539298 -0.0530726 -0.0509989 -0.0481071 -0.0444104 -0.0388495 -0.0318432 -0.0234942 -0.0133516 1.95156e-18 