# vtk DataFile Version 2.0
iteration 216
ASCII

DATASET STRUCTURED_POINTS
DIMENSIONS 621 64 1
ORIGIN 0 0 0
SPACING 0.00161031 0.00161031 0.00161031

POINT_DATA 39744
SCALARS P float 1
LOOKUP_TABLE default
0 0 0 0 0 0 0 0 0 0 0 0 0 0 0 0 0 0 0 0 0 0 0 0 0 0 0 0 0 0 0 0 0 0 0 0 0 0 0 0 0 0 0 0 0 0 0 0 0 0 0 0 0 0 0 0 0 0 0 0 0 0 0 0 0 0 0 0 0 0 0 0 0 0 0 0 0 0 0 0 0 0 0 0 0 0 0 0 0 0 0 0 0 0 0 0 0 0 0 0 0 0 0 0 0 0 0 0 0 0 0 0 0 0 0 0 0 0 0 0 0 0 0 0 0 0 0 0 0 0 0 0 0 0 0 0 0 0 0 0 0 0 0 0 0 0 0 0 0 0 0 0 0 0 0 0 0 0 0 0 0 0 0 0 0 0 0 0 0 0 0 0 0 0 0 0 0 0 0 0 0 0 0 0 0 0 0 0 0 0 0 0 0 0 0 0 0 0 0 0 0 0 0 0 0 0 0 0 0 0 0 0 0 0 0 0 0 0 0 0 0 0 0 0 0 0 0 0 0 0 0 0 0 0 0 0 0 0 0 0 0 0 0 0 0 0 0 0 0 0 0 0 0 0 0 0 0 0 0 0 0 0 0 0 0 0 0 0 0 0 0 0 0 0 0 0 0 0 0 0 0 0 0 0 0 0 0 0 0 0 0 0 0 0 0 0 0 0 0 0 0 0 0 0 0 0 0 0 0 0 0 0 0 0 0 0 0 0 0 0 0 0 0 0 0 0 0 0 0 0 0 0 0 0 0 0 0 0 0 0 0 0 0 0 0 0 0 0 0 0 0 0 0 0 0 0 0 0 0 0 0 0 0 0 0 0 0 0 0 0 0 0 0 0 0 0 0 0 0 0 0 0 0 0 0 0 0 0 0 0 0 0 0 0 0 0 0 0 0 0 0 0 0 0 0 0 0 0 0 0 0 0 0 0 0 0 0 0 0 0 0 0 0 0 0 0 0 0 0 0 0 0 0 0 0 0 0 0 0 0 0 0 0 0 0 0 0 0 0 0 0 0 0 0 0 0 0 0 0 0 0 0 0 0 0 0 0 0 0 0 0 0 0 0 0 0 0 0 0 0 0 0 0 0 0 0 0 0 0 0 0 0 0 0 0 0 0 0 0 0 0 0 0 0 0 0 0 0 0 0 0 0 0 0 0 0 0 0 0 0 0 0 0 0 0 0 0 0 0 0 0 0 0 0 0 0 0 0 0 0 0 0 0 0 0 0 0 0 0 0 0 0 0 0 0 0 0 0 0 0 0 0 0 0 0 0 0 0 0 0 0 0 0 0 0 0 0 0 0 0 0 0 0 0 0 0 0 0 0 0 0 0 0 0 0 0 0 0 0 0 0 0 0 0 0 0 0 0 0 0 0 0 0 0 0 0 0 0 0 0 0 
0.02 0.0200013 0.0200003 0.0199994 0.0199979 0.019996 0.0199934 0.0199896 0.0199837 0.0199743 0.0199593 0.0199365 0.0199027 0.0198544 0.0197879 0.019699 0.0195834 0.0194367 0.0192547 0.0190324 0.0187617 0.0184344 0.0180496 0.0176259 0.0171533 0.0166246 0.0160327 0.0153668 0.014607 0.0137353 0.01279 0.0117673 0.0106737 0.00955511 0.00858365 0.00835769 0.00671138 0 0 0 0 0 0 0 0 0 0 0 0 0 0 0 0 0 0 0 0 0 0 0 0 0 0 0 0 0 0 0 0 0 0 0 0 0 0 0 0 0 0 0 0 0 0 0 0 0 0 0 0 0 0 0 0 0 0 0 0 0 0 0 0 0 0 0 0 0 0 0 0 0 0 0 0 0 0 0 0 0 0 0 0 0 0 0 0 0 0 0 0 0 0 0 0 0 0 0 0 0 0 0 0 0 0 0 0 0 0 0 0 0 0 0 0 0 0 0 0 0 0 0 0 0 0 0 0 0 0 0 0 0 0 0 0 0 0 0 0 0 0 0 0 0 0 0 0 0 0 0 0 0 0 0 0 0 0 0 0 0 0 0 0 0 0 0 0 0 0 0 0 0 0 0 0 0 0 0 0 0 0 0 0 0 0 0 0 0 0 0 0 0 0 0 0 0 0 0 0 0 0 0 0 0 0 0 0 0 0 0 0 0 0 0 0 0 0 0 0 0 0 0 0 0 0 0 0 0 0 0 0 0 0 0 0 0 0 0 0 0 0 0 0 0 0 0 0 0 0 0 0 0 0 0 0 0 0 0 0 0 0 0 0 0 0 0 0 0 0 0 0 0 0 0 0 0 0 0 0 0 0 0 0 0 0 0 0 0 0 0 0 0 0 0 0 0 0 0 0 0 0 0 0 0 0 0 0 0 0 0 0 0 0 0 0 0 0 0 0 0 0 0 0 0 0 0 0 0 0 0 0 0 0 0 0 0 0 0 0 0 0 0 0 0 0 0 0 0 0 0 0 0 0 0 0 0 0 0 0 0 0 0 0 0 0 0 0 0 0 0 0 0 0 0 0 0 0 0 0 0 0 0 0 0 0 0 0 0 0 0 0 0 0 0 0 0 0 0 0 0 0 0 0 0 0 0 0 0 0 0 0 0 0 0 0 0 0 0 0 0 0 0 0 0 0 0 0 0 0 0 0 0 0 0 0 0 0 0 0 0 0 0 0 0 0 0 0 0 0 0 0 0 0 0 0 0 0 0 0 0 0 0 0 0 0 0 0 0 0 0 0 0 0 0 0 0 0 0 0 0 0 0 0 0 0 0 0 0 0 0 0 0 0 0 0 0 0 0 0 0 0 0 0 0 0 0 0 0 0 0 0 0 0 0 0 0 0 0 0 0 0 0 0 0 0 0 0 0 0 0 0 0 0 0 0 0 0 0 0 0 0 0 0 0 0 0 0 0 0 0 0 0 0 0 0 0 0 0 0 0 0 0 0 0 0 0 0 0 0 0 0 0 0 0 0 0 0 0 0 0 0 0 0 
0.02 0.0200002 0.0199993 0.019998 0.0199963 0.0199941 0.0199913 0.0199873 0.0199813 0.0199719 0.0199573 0.0199349 0.0199019 0.0198547 0.0197897 0.0197026 0.0195892 0.0194448 0.0192649 0.019044 0.018776 0.0184565 0.0180866 0.0176684 0.0171977 0.0166682 0.0160715 0.0153975 0.014635 0.0137791 0.0128432 0.0118326 0.0107615 0.00967104 0.00869071 0.00780567 0.00657444 0.00514197 0.00366452 0.00207291 0.00108132 0 0 0 0 0 0 0 0 0 0 0 0 0 0 0 0 0 0 0 0 0 0 0 0 0 0 0 0 0 0 0 0 0 0 0 0 0 0 0 0 0 0 0 0 0 0 0 0 0 0 0 0 0 0 0 0 0 0 0 0 0 0 0 0 0 0 0 0 0 0 0 0 0 0 0 0 0 0 0 0 0 0 0 0 0 0 0 0 0 0 0 0 0 0 0 0 0 0 0 0 0 0 0 0 0 0 0 0 0 0 0 0 0 0 0 0 0 0 0 0 0 0 0 0 0 0 0 0 0 0 0 0 0 0 0 0 0 0 0 0 0 0 0 0 0 0 0 0 0 0 0 0 0 0 0 0 0 0 0 0 0 0 0 0 0 0 0 0 0 0 0 0 0 0 0 0 0 0 0 0 0 0 0 0 0 0 0 0 0 0 0 0 0 0 0 0 0 0 0 0 0 0 0 0 0 0 0 0 0 0 0 0 0 0 0 0 0 0 0 0 0 0 0 0 0 0 0 0 0 0 0 0 0 0 0 0 0 0 0 0 0 0 0 0 0 0 0 0 0 0 0 0 0 0 0 0 0 0 0 0 0 0 0 0 0 0 0 0 0 0 0 0 0 0 0 0 0 0 0 0 0 0 0 0 0 0 0 0 0 0 0 0 0 0 0 0 0 0 0 0 0 0 0 0 0 0 0 0 0 0 0 0 0 0 0 0 0 0 0 0 0 0 0 0 0 0 0 0 0 0 0 0 0 0 0 0 0 0 0 0 0 0 0 0 0 0 0 0 0 0 0 0 0 0 0 0 0 0 0 0 0 0 0 0 0 0 0 0 0 0 0 0 0 0 0 0 0 0 0 0 0 0 0 0 0 0 0 0 0 0 0 0 0 0 0 0 0 0 0 0 0 0 0 0 0 0 0 0 0 0 0 0 0 0 0 0 0 0 0 0 0 0 0 0 0 0 0 0 0 0 0 0 0 0 0 0 0 0 0 0 0 0 0 0 0 0 0 0 0 0 0 0 0 0 0 0 0 0 0 0 0 0 0 0 0 0 0 0 0 0 0 0 0 0 0 0 0 0 0 0 0 0 0 0 0 0 0 0 0 0 0 0 0 0 0 0 0 0 0 0 0 0 0 0 0 0 0 0 0 0 0 0 0 0 0 0 0 0 0 0 0 0 0 0 0 0 0 0 0 0 0 0 0 0 0 0 0 0 0 0 0 0 0 0 0 0 0 0 0 0 0 0 0 0 0 0 0 0 0 0 0 0 0 0 0 0 0 0 0 0 0 0 0 0 0 0 0 0 0 0 
0.02 0.0199996 0.0199985 0.019997 0.0199951 0.0199927 0.0199898 0.0199859 0.0199801 0.019971 0.0199569 0.0199352 0.0199032 0.0198574 0.019794 0.0197089 0.0195977 0.0194557 0.0192779 0.0190593 0.0187955 0.0184836 0.0181233 0.0177122 0.0172456 0.0167171 0.0161186 0.0154421 0.0146813 0.0138367 0.0129173 0.0119318 0.010895 0.00985683 0.00882744 0.00780748 0.00654522 0.00513797 0.00365706 0.00209114 0.00062844 -0.00114261 -0.00325499 -0.00509481 0 0 0 0 0 0 0 0 0 0 0 0 0 0 0 0 0 0 0 0 0 0 0 0 0 0 0 0 0 0 0 0 0 0 0 0 0 0 0 0 0 0 0 0 0 0 0 0 0 0 0 0 0 0 0 0 0 0 0 0 0 0 0 0 0 0 0 0 0 0 0 0 0 0 0 0 0 0 0 0 0 0 0 0 0 0 0 0 0 0 0 0 0 0 0 0 0 0 0 0 0 0 0 0 0 0 0 0 0 0 0 0 0 0 0 0 0 0 0 0 0 0 0 0 0 0 0 0 0 0 0 0 0 0 0 0 0 0 0 0 0 0 0 0 0 0 0 0 0 0 0 0 0 0 0 0 0 0 0 0 0 0 0 0 0 0 0 0 0 0 0 0 0 0 0 0 0 0 0 0 0 0 0 0 0 0 0 0 0 0 0 0 0 0 0 0 0 0 0 0 0 0 0 0 0 0 0 0 0 0 0 0 0 0 0 0 0 0 0 0 0 0 0 0 0 0 0 0 0 0 0 0 0 0 0 0 0 0 0 0 0 0 0 0 0 0 0 0 0 0 0 0 0 0 0 0 0 0 0 0 0 0 0 0 0 0 0 0 0 0 0 0 0 0 0 0 0 0 0 0 0 0 0 0 0 0 0 0 0 0 0 0 0 0 0 0 0 0 0 0 0 0 0 0 0 0 0 0 0 0 0 0 0 0 0 0 0 0 0 0 0 0 0 0 0 0 0 0 0 0 0 0 0 0 0 0 0 0 0 0 0 0 0 0 0 0 0 0 0 0 0 0 0 0 0 0 0 0 0 0 0 0 0 0 0 0 0 0 0 0 0 0 0 0 0 0 0 0 0 0 0 0 0 0 0 0 0 0 0 0 0 0 0 0 0 0 0 0 0 0 0 0 0 0 0 0 0 0 0 0 0 0 0 0 0 0 0 0 0 0 0 0 0 0 0 0 0 0 0 0 0 0 0 0 0 0 0 0 0 0 0 0 0 0 0 0 0 0 0 0 0 0 0 0 0 0 0 0 0 0 0 0 0 0 0 0 0 0 0 0 0 0 0 0 0 0 0 0 0 0 0 0 0 0 0 0 0 0 0 0 0 0 0 0 0 0 0 0 0 0 0 0 0 0 0 0 0 0 0 0 0 0 0 0 0 0 0 0 0 0 0 0 0 0 0 0 0 0 0 0 0 0 0 0 0 0 0 0 0 0 0 0 0 0 0 0 0 0 0 0 0 0 0 0 0 0 0 0 0 0 0 0 0 0 0 0 0 0 0 0 0 0 0 0 0 0 2.71051e-20 
0.02 0.0199992 0.0199978 0.019996 0.0199938 0.0199914 0.0199885 0.0199847 0.0199791 0.0199706 0.0199572 0.0199366 0.019906 0.0198621 0.019801 0.0197186 0.0196105 0.0194719 0.0192979 0.019084 0.0188268 0.0185232 0.0181713 0.017767 0.017305 0.0167788 0.0161818 0.0155082 0.0147558 0.0139268 0.0130305 0.0120773 0.0110793 0.0100574 0.00900383 0.00788561 0.00660644 0.00520648 0.00373175 0.00215478 0.000579471 -0.0011498 -0.00285622 -0.00515515 -0.00790955 -0.0109225 0 0 0 0 0 0 0 0 0 0 0 0 0 0 0 0 0 0 0 0 0 0 0 0 0 0 0 0 0 0 0 0 0 0 0 0 0 0 0 0 0 0 0 0 0 0 0 0 0 0 0 0 0 0 0 0 0 0 0 0 0 0 0 0 0 0 0 0 0 0 0 0 0 0 0 0 0 0 0 0 0 0 0 0 0 0 0 0 0 0 0 0 0 0 0 0 0 0 0 0 0 0 0 0 0 0 0 0 0 0 0 0 0 0 0 0 0 0 0 0 0 0 0 0 0 0 0 0 0 0 0 0 0 0 0 0 0 0 0 0 0 0 0 0 0 0 0 0 0 0 0 0 0 0 0 0 0 0 0 0 0 0 0 0 0 0 0 0 0 0 0 0 0 0 0 0 0 0 0 0 0 0 0 0 0 0 0 0 0 0 0 0 0 0 0 0 0 0 0 0 0 0 0 0 0 0 0 0 0 0 0 0 0 0 0 0 0 0 0 0 0 0 0 0 0 0 0 0 0 0 0 0 0 0 0 0 0 0 0 0 0 0 0 0 0 0 0 0 0 0 0 0 0 0 0 0 0 0 0 0 0 0 0 0 0 0 0 0 0 0 0 0 0 0 0 0 0 0 0 0 0 0 0 0 0 0 0 0 0 0 0 0 0 0 0 0 0 0 0 0 0 0 0 0 0 0 0 0 0 0 0 0 0 0 0 0 0 0 0 0 0 0 0 0 0 0 0 0 0 0 0 0 0 0 0 0 0 0 0 0 0 0 0 0 0 0 0 0 0 0 0 0 0 0 0 0 0 0 0 0 0 0 0 0 0 0 0 0 0 0 0 0 0 0 0 0 0 0 0 0 0 0 0 0 0 0 0 0 0 0 0 0 0 0 0 0 0 0 0 0 0 0 0 0 0 0 0 0 0 0 0 0 0 0 0 0 0 0 0 0 0 0 0 0 0 0 0 0 0 0 0 0 0 0 0 0 0 0 0 0 0 0 0 0 0 0 0 0 0 0 0 0 0 0 0 0 0 0 0 0 0 0 0 0 0 0 0 0 0 0 0 0 0 0 0 0 0 0 0 0 0 0 0 0 0 0 0 0 0 0 0 0 0 0 0 0 0 0 0 0 0 0 0 0 0 0 0 0 0 0 0 0 0 0 0 0 0 0 0 0 0 0 0 0 0 0 0 0 0 0 0 0 0 0 0 0 0 0 0 0 0 0 0 0 0 0 0 0 0 0 0 0 0 0 0 0 0 0 0 0 0 0 0 0 0 0 0 0 0 0 0 0 0 -0.00433573 -2.1684e-19 
0.02 0.0199987 0.0199969 0.0199947 0.0199923 0.0199897 0.0199867 0.019983 0.0199778 0.0199698 0.0199573 0.019938 0.0199092 0.0198675 0.0198093 0.0197304 0.0196264 0.0194927 0.0193244 0.0191175 0.0188683 0.0185738 0.0182302 0.0178331 0.0173767 0.0168555 0.0162641 0.0155996 0.0148618 0.0140547 0.0131866 0.0122685 0.0113025 0.0102849 0.00921016 0.00803247 0.00673537 0.00532776 0.00383563 0.00224955 0.000585831 -0.00118916 -0.00309048 -0.00514745 -0.00715638 -0.0104486 -0.0141902 -0.0180616 0 0 0 0 0 0 0 0 0 0 0 0 0 0 0 0 0 0 0 0 0 0 0 0 0 0 0 0 0 0 0 0 0 0 0 0 0 0 0 0 0 0 0 0 0 0 0 0 0 0 0 0 0 0 0 0 0 0 0 0 0 0 0 0 0 0 0 0 0 0 0 0 0 0 0 0 0 0 0 0 0 0 0 0 0 0 0 0 0 0 0 0 0 0 0 0 0 0 0 0 0 0 0 0 0 0 0 0 0 0 0 0 0 0 0 0 0 0 0 0 0 0 0 0 0 0 0 0 0 0 0 0 0 0 0 0 0 0 0 0 0 0 0 0 0 0 0 0 0 0 0 0 0 0 0 0 0 0 0 0 0 0 0 0 0 0 0 0 0 0 0 0 0 0 0 0 0 0 0 0 0 0 0 0 0 0 0 0 0 0 0 0 0 0 0 0 0 0 0 0 0 0 0 0 0 0 0 0 0 0 0 0 0 0 0 0 0 0 0 0 0 0 0 0 0 0 0 0 0 0 0 0 0 0 0 0 0 0 0 0 0 0 0 0 0 0 0 0 0 0 0 0 0 0 0 0 0 0 0 0 0 0 0 0 0 0 0 0 0 0 0 0 0 0 0 0 0 0 0 0 0 0 0 0 0 0 0 0 0 0 0 0 0 0 0 0 0 0 0 0 0 0 0 0 0 0 0 0 0 0 0 0 0 0 0 0 0 0 0 0 0 0 0 0 0 0 0 0 0 0 0 0 0 0 0 0 0 0 0 0 0 0 0 0 0 0 0 0 0 0 0 0 0 0 0 0 0 0 0 0 0 0 0 0 0 0 0 0 0 0 0 0 0 0 0 0 0 0 0 0 0 0 0 0 0 0 0 0 0 0 0 0 0 0 0 0 0 0 0 0 0 0 0 0 0 0 0 0 0 0 0 0 0 0 0 0 0 0 0 0 0 0 0 0 0 0 0 0 0 0 0 0 0 0 0 0 0 0 0 0 0 0 0 0 0 0 0 0 0 0 0 0 0 0 0 0 0 0 0 0 0 0 0 0 0 0 0 0 0 0 0 0 0 0 0 0 0 0 0 0 0 0 0 0 0 0 0 0 0 0 0 0 0 0 0 0 0 0 0 0 0 0 0 0 0 0 0 0 0 0 0 0 0 0 0 0 0 0 0 0 0 0 0 0 0 0 0 0 0 0 0 0 0 0 0 0 0 0 0 0 0 0 0 0 0 0 0 0 0 0 0 0 0 0 0 0 0 0 0 0 0 0 0 0 0 0 0 0 0 0 -0.0138387 -0.0072256 1.0842e-18 
0.02 0.0199982 0.0199959 0.0199933 0.0199904 0.0199874 0.0199843 0.0199805 0.0199754 0.0199679 0.0199562 0.0199383 0.0199113 0.0198721 0.0198172 0.0197424 0.0196434 0.0195157 0.0193547 0.0191563 0.0189165 0.0186316 0.0182973 0.0179086 0.0174604 0.0169479 0.0163675 0.0157182 0.0150016 0.014222 0.0133847 0.0124948 0.0115502 0.0105378 0.00943256 0.00823417 0.0069198 0.00549969 0.00398727 0.00237538 0.00066097 -0.00117284 -0.00311662 -0.00525821 -0.00754955 -0.010158 -0.0133478 -0.0173498 -0.0233475 0 0 0 0 0 0 0 0 0 0 0 0 0 0 0 0 0 0 0 0 0 0 0 0 0 0 0 0 0 0 0 0 0 0 0 0 0 0 0 0 0 0 0 0 0 0 0 0 0 0 0 0 0 0 0 0 0 0 0 0 0 0 0 0 0 0 0 0 0 0 0 0 0 0 0 0 0 0 0 0 0 0 0 0 0 0 0 0 0 0 0 0 0 0 0 0 0 0 0 0 0 0 0 0 0 0 0 0 0 0 0 0 0 0 0 0 0 0 0 0 0 0 0 0 0 0 0 0 0 0 0 0 0 0 0 0 0 0 0 0 0 0 0 0 0 0 0 0 0 0 0 0 0 0 0 0 0 0 0 0 0 0 0 0 0 0 0 0 0 0 0 0 0 0 0 0 0 0 0 0 0 0 0 0 0 0 0 0 0 0 0 0 0 0 0 0 0 0 0 0 0 0 0 0 0 0 0 0 0 0 0 0 0 0 0 0 0 0 0 0 0 0 0 0 0 0 0 0 0 0 0 0 0 0 0 0 0 0 0 0 0 0 0 0 0 0 0 0 0 0 0 0 0 0 0 0 0 0 0 0 0 0 0 0 0 0 0 0 0 0 0 0 0 0 0 0 0 0 0 0 0 0 0 0 0 0 0 0 0 0 0 0 0 0 0 0 0 0 0 0 0 0 0 0 0 0 0 0 0 0 0 0 0 0 0 0 0 0 0 0 0 0 0 0 0 0 0 0 0 0 0 0 0 0 0 0 0 0 0 0 0 0 0 0 0 0 0 0 0 0 0 0 0 0 0 0 0 0 0 0 0 0 0 0 0 0 0 0 0 0 0 0 0 0 0 0 0 0 0 0 0 0 0 0 0 0 0 0 0 0 0 0 0 0 0 0 0 0 0 0 0 0 0 0 0 0 0 0 0 0 0 0 0 0 0 0 0 0 0 0 0 0 0 0 0 0 0 0 0 0 0 0 0 0 0 0 0 0 0 0 0 0 0 0 0 0 0 0 0 0 0 0 0 0 0 0 0 0 0 0 0 0 0 0 0 0 0 0 0 0 0 0 0 0 0 0 0 0 0 0 0 0 0 0 0 0 0 0 0 0 0 0 0 0 0 0 0 0 0 0 0 0 0 0 0 0 0 0 0 0 0 0 0 0 0 0 0 0 0 0 0 0 0 0 0 0 -0.0435095 -0.0464338 -0.0469686 -0.0465746 -0.0456405 -0.0444213 -0.0430646 -0.0416828 -0.0403576 -0.0390623 -0.037815 -0.0366369 -0.0355518 -0.0345933 -0.0340471 -0.0379003 0 0 0 0 0 0 0 0 0 0 0 0 0 0 0 0 0 0 0 0 0 0 0 0 0 -0.0288168 -0.0252414 -0.0184925 -0.0102861 -1.51788e-18 
0.02 0.0199976 0.0199947 0.0199915 0.019988 0.0199845 0.0199809 0.0199768 0.0199716 0.0199643 0.0199532 0.0199363 0.0199111 0.0198744 0.0198228 0.0197525 0.0196591 0.0195383 0.0193857 0.0191967 0.0189673 0.0186932 0.0183696 0.0179919 0.0175553 0.0170563 0.0164927 0.0158646 0.0151738 0.0144239 0.0136165 0.0127502 0.0118188 0.0108061 0.00969804 0.00848062 0.00715288 0.00572026 0.00418745 0.00254992 0.000797818 -0.00107985 -0.00309596 -0.00529103 -0.00768285 -0.0102552 -0.0132427 -0.0167108 -0.0208436 -0.0281665 -0.0335458 0 0 0 0 0 0 0 0 0 0 0 0 0 0 0 0 0 0 0 0 0 0 0 0 0 0 0 0 0 0 0 0 0 0 0 0 0 0 0 0 0 0 0 0 0 0 0 0 0 0 0 0 0 0 0 0 0 0 0 0 0 0 0 0 0 0 0 0 0 0 0 0 0 0 0 0 0 0 0 0 0 0 0 0 0 0 0 0 0 0 0 0 0 0 0 0 0 0 0 0 0 0 0 0 0 0 0 0 0 0 0 0 0 0 0 0 0 0 0 0 0 0 0 0 0 0 0 0 0 0 0 0 0 0 0 0 0 0 0 0 0 0 0 0 0 0 0 0 0 0 0 0 0 0 0 0 0 0 0 0 0 0 0 0 0 0 0 0 0 0 0 0 0 0 0 0 0 0 0 0 0 0 0 0 0 0 0 0 0 0 0 0 0 0 0 0 0 0 0 0 0 0 0 0 0 0 0 0 0 0 0 0 0 0 0 0 0 0 0 0 0 0 0 0 0 0 0 0 0 0 0 0 0 0 0 0 0 0 0 0 0 0 0 0 0 0 0 0 0 0 0 0 0 0 0 0 0 0 0 0 0 0 0 0 0 0 0 0 0 0 0 0 0 0 0 0 0 0 0 0 0 0 0 0 0 0 0 0 0 0 0 0 0 0 0 0 0 0 0 0 0 0 0 0 0 0 0 0 0 0 0 0 0 0 0 0 0 0 0 0 0 0 0 0 0 0 0 0 0 0 0 0 0 0 0 0 0 0 0 0 0 0 0 0 0 0 0 0 0 0 0 0 0 0 0 0 0 0 0 0 0 0 0 0 0 0 0 0 0 0 0 0 0 0 0 0 0 0 0 0 0 0 0 0 0 0 0 0 0 0 0 0 0 0 0 0 0 0 0 0 0 0 0 0 0 0 0 0 0 0 0 0 0 0 0 0 0 0 0 0 0 0 0 0 0 0 0 0 0 0 0 0 0 0 0 0 0 0 0 0 0 0 0 0 0 0 0 0 0 0 0 0 0 0 0 0 0 0 0 0 0 0 0 0 0 0 0 0 0 0 0 0 0 0 0 0 0 0 0 0 0 0 0 0 0 0 0 0 0 0 0 0 0 0 0 0 0 0 0 0 0 0 0 0 0 0 0 0 0 0 0 0 0 0 0 0 0 0 -0.0388612 -0.0400454 -0.0438859 -0.0469405 -0.0483827 -0.0483498 -0.0475716 -0.0473763 -0.0470913 -0.0465007 -0.0455581 -0.0443526 -0.0430523 -0.0416873 -0.0403786 -0.0390971 -0.0378627 -0.0366967 -0.0356212 -0.0346664 -0.0340003 -0.0340624 -0.0338233 -0.0329689 -0.0322968 -0.0318554 -0.0316418 -0.0316722 -0.0318712 -0.0321874 -0.0325937 -0.0330642 -0.0335862 -0.0341521 -0.0347565 -0.0353989 -0.036079 -0.0367914 -0.0375207 -0.0382344 -0.0388782 -0.0393788 -0.0396594 -0.0396512 -0.0391322 -0.0378834 -0.0357294 -0.0323408 -0.0271083 -0.0200524 -0.0116173 -1.51788e-18 
0.02 0.019997 0.0199934 0.0199894 0.0199852 0.0199809 0.0199765 0.0199717 0.0199661 0.0199585 0.0199475 0.0199314 0.0199075 0.0198731 0.0198248 0.019759 0.0196715 0.019558 0.0194142 0.0192355 0.0190174 0.0187554 0.0184449 0.0180813 0.0176607 0.0171803 0.0166389 0.0160368 0.0153754 0.0146557 0.0138761 0.0130302 0.0121071 0.0110959 0.00998242 0.00876101 0.00742919 0.00598609 0.00443078 0.00276004 0.000966779 -0.000967309 -0.00305244 -0.00530171 -0.00779377 -0.010449 -0.013441 -0.0169134 -0.020838 -0.0261142 -0.0331073 -0.0422032 0 0 0 0 0 0 0 0 0 0 0 0 0 0 0 0 0 0 0 0 0 0 0 0 0 0 0 0 0 0 0 0 0 0 0 0 0 0 0 0 0 0 0 0 0 0 0 0 0 0 0 0 0 0 0 0 0 0 0 0 0 0 0 0 0 0 0 0 0 0 0 0 0 0 0 0 0 0 0 0 0 0 0 0 0 0 0 0 0 0 0 0 0 0 0 0 0 0 0 0 0 0 0 0 0 0 0 0 0 0 0 0 0 0 0 0 0 0 0 0 0 0 0 0 0 0 0 0 0 0 0 0 0 0 0 0 0 0 0 0 0 0 0 0 0 0 0 0 0 0 0 0 0 0 0 0 0 0 0 0 0 0 0 0 0 0 0 0 0 0 0 0 0 0 0 0 0 0 0 0 0 0 0 0 0 0 0 0 0 0 0 0 0 0 0 0 0 0 0 0 0 0 0 0 0 0 0 0 0 0 0 0 0 0 0 0 0 0 0 0 0 0 0 0 0 0 0 0 0 0 0 0 0 0 0 0 0 0 0 0 0 0 0 0 0 0 0 0 0 0 0 0 0 0 0 0 0 0 0 0 0 0 0 0 0 0 0 0 0 0 0 0 0 0 0 0 0 0 0 0 0 0 0 0 0 0 0 0 0 0 0 0 0 0 0 0 0 0 0 0 0 0 0 0 0 0 0 0 0 0 0 0 0 0 0 0 0 0 0 0 0 0 0 0 0 0 0 0 0 0 0 0 0 0 0 0 0 0 0 0 0 0 0 0 0 0 0 0 0 0 0 0 0 0 0 0 0 0 0 0 0 0 0 0 0 0 0 0 0 0 0 0 0 0 0 0 0 0 0 0 0 0 0 0 0 0 0 0 0 0 0 0 0 0 0 0 0 0 0 0 0 0 0 0 0 0 0 0 0 0 0 0 0 0 0 0 0 0 0 0 0 0 0 0 0 0 0 0 0 0 0 0 0 0 0 0 0 0 0 0 0 0 0 0 0 0 0 0 0 0 0 0 0 0 0 0 0 0 0 0 0 0 0 0 0 0 0 0 0 0 0 0 0 0 0 0 0 0 0 0 0 0 0 0 0 0 0 0 0 0 0 0 0 0 0 0 0 0 0 0 0 0 0 0 0 0 0 0 0 0 0 0 0 0 0 0 -0.0374242 -0.0371874 -0.041857 -0.0447028 -0.0467915 -0.0480953 -0.048035 -0.0477195 -0.0474359 -0.0469569 -0.0462413 -0.0453116 -0.0441409 -0.0428951 -0.0415903 -0.040317 -0.0390657 -0.0378578 -0.0367149 -0.0356598 -0.0347191 -0.0340083 -0.0336449 -0.0334073 -0.0329857 -0.0324497 -0.0320571 -0.0318433 -0.0318372 -0.0320029 -0.0322894 -0.0326722 -0.0331256 -0.0336319 -0.0341846 -0.0347768 -0.0354057 -0.0360689 -0.0367582 -0.0374565 -0.0381357 -0.0387562 -0.0392663 -0.039597 -0.0396643 -0.0391767 -0.0379087 -0.0356631 -0.0323963 -0.0276092 -0.0210895 -0.012281 -2.1684e-19 
0.02 0.0199963 0.0199919 0.019987 0.0199818 0.0199765 0.0199711 0.0199653 0.0199587 0.0199504 0.0199391 0.0199231 0.0199002 0.0198676 0.0198223 0.0197607 0.0196789 0.0195729 0.0194382 0.0192703 0.0190646 0.0188165 0.0185215 0.0181755 0.0177752 0.0173182 0.0168036 0.0162312 0.0156006 0.0149103 0.0141557 0.0133283 0.012417 0.0114096 0.0102978 0.00907586 0.00774019 0.00628711 0.00471243 0.00301011 0.00117287 -0.000813059 -0.00296918 -0.00531678 -0.00786941 -0.0107005 -0.0137756 -0.0172445 -0.021295 -0.0254567 -0.0312022 -0.0387114 -0.0501999 0 0 0 0 0 0 0 0 0 0 0 0 0 0 0 0 0 0 0 0 0 0 0 0 0 0 0 0 0 0 0 0 0 0 0 0 0 0 0 0 0 0 0 0 0 0 0 0 0 0 0 0 0 0 0 0 0 0 0 0 0 0 0 0 0 0 0 0 0 0 0 0 0 0 0 0 0 0 0 0 0 0 0 0 0 0 0 0 0 0 0 0 0 0 0 0 0 0 0 0 0 0 0 0 0 0 0 0 0 0 0 0 0 0 0 0 0 0 0 0 0 0 0 0 0 0 0 0 0 0 0 0 0 0 0 0 0 0 0 0 0 0 0 0 0 0 0 0 0 0 0 0 0 0 0 0 0 0 0 0 0 0 0 0 0 0 0 0 0 0 0 0 0 0 0 0 0 0 0 0 0 0 0 0 0 0 0 0 0 0 0 0 0 0 0 0 0 0 0 0 0 0 0 0 0 0 0 0 0 0 0 0 0 0 0 0 0 0 0 0 0 0 0 0 0 0 0 0 0 0 0 0 0 0 0 0 0 0 0 0 0 0 0 0 0 0 0 0 0 0 0 0 0 0 0 0 0 0 0 0 0 0 0 0 0 0 0 0 0 0 0 0 0 0 0 0 0 0 0 0 0 0 0 0 0 0 0 0 0 0 0 0 0 0 0 0 0 0 0 0 0 0 0 0 0 0 0 0 0 0 0 0 0 0 0 0 0 0 0 0 0 0 0 0 0 0 0 0 0 0 0 0 0 0 0 0 0 0 0 0 0 0 0 0 0 0 0 0 0 0 0 0 0 0 0 0 0 0 0 0 0 0 0 0 0 0 0 0 0 0 0 0 0 0 0 0 0 0 0 0 0 0 0 0 0 0 0 0 0 0 0 0 0 0 0 0 0 0 0 0 0 0 0 0 0 0 0 0 0 0 0 0 0 0 0 0 0 0 0 0 0 0 0 0 0 0 0 0 0 0 0 0 0 0 0 0 0 0 0 0 0 0 0 0 0 0 0 0 0 0 0 0 0 0 0 0 0 0 0 0 0 0 0 0 0 0 0 0 0 0 0 0 0 0 0 0 0 0 0 0 0 0 0 0 0 0 0 0 0 0 0 0 0 0 0 0 0 0 0 0 0 0 0 0 0 0 0 0 0 0 0 0 0 0 -0.0388629 -0.0402697 -0.0406344 -0.0432639 -0.0454617 -0.0466813 -0.0474391 -0.0475221 -0.0473773 -0.0470676 -0.0465409 -0.0458096 -0.0448978 -0.0438075 -0.0426364 -0.0414168 -0.0402001 -0.0389963 -0.0378304 -0.0367222 -0.0356975 -0.0347808 -0.0340296 -0.0335174 -0.0332228 -0.0329388 -0.0325762 -0.0322605 -0.0320802 -0.0320599 -0.0321935 -0.0324542 -0.0328127 -0.0332475 -0.0337417 -0.034285 -0.0348704 -0.0354916 -0.0361423 -0.0368111 -0.0374798 -0.0381252 -0.0387207 -0.039229 -0.0395855 -0.0396841 -0.039305 -0.0381051 -0.0357864 -0.0326639 -0.028211 -0.0217393 -0.0127891 -1.73472e-18 
0.02 0.0199956 0.0199904 0.0199845 0.0199782 0.0199717 0.0199649 0.0199577 0.0199498 0.0199403 0.0199281 0.0199117 0.0198891 0.0198578 0.0198149 0.0197572 0.019681 0.0195823 0.0194568 0.0193002 0.0191078 0.0188753 0.0185983 0.0182732 0.017897 0.0174675 0.0169831 0.0164426 0.0158439 0.0151828 0.0144525 0.0136437 0.0127453 0.0117474 0.0106413 0.00942128 0.00808277 0.00662057 0.0050277 0.00329589 0.00141381 -0.000630067 -0.00285379 -0.005281 -0.00794276 -0.0108571 -0.0141018 -0.0177416 -0.0217618 -0.0261344 -0.0308873 -0.0374435 -0.0448548 -0.0556254 -0.0672815 0 0 0 0 0 0 0 0 0 0 0 0 0 0 0 0 0 0 0 0 0 0 0 0 0 0 0 0 0 0 0 0 0 0 0 0 0 0 0 0 0 0 0 0 0 0 0 0 0 0 0 0 0 0 0 0 0 0 0 0 0 0 0 0 0 0 0 0 0 0 0 0 0 0 0 0 0 0 0 0 0 0 0 0 0 0 0 0 0 0 0 0 0 0 0 0 0 0 0 0 0 0 0 0 0 0 0 0 0 0 0 0 0 0 0 0 0 0 0 0 0 0 0 0 0 0 0 0 0 0 0 0 0 0 0 0 0 0 0 0 0 0 0 0 0 0 0 0 0 0 0 0 0 0 0 0 0 0 0 0 0 0 0 0 0 0 0 0 0 0 0 0 0 0 0 0 0 0 0 0 0 0 0 0 0 0 0 0 0 0 0 0 0 0 0 0 0 0 0 0 0 0 0 0 0 0 0 0 0 0 0 0 0 0 0 0 0 0 0 0 0 0 0 0 0 0 0 0 0 0 0 0 0 0 0 0 0 0 0 0 0 0 0 0 0 0 0 0 0 0 0 0 0 0 0 0 0 0 0 0 0 0 0 0 0 0 0 0 0 0 0 0 0 0 0 0 0 0 0 0 0 0 0 0 0 0 0 0 0 0 0 0 0 0 0 0 0 0 0 0 0 0 0 0 0 0 0 0 0 0 0 0 0 0 0 0 0 0 0 0 0 0 0 0 0 0 0 0 0 0 0 0 0 0 0 0 0 0 0 0 0 0 0 0 0 0 0 0 0 0 0 0 0 0 0 0 0 0 0 0 0 0 0 0 0 0 0 0 0 0 0 0 0 0 0 0 0 0 0 0 0 0 0 0 0 0 0 0 0 0 0 0 0 0 0 0 0 0 0 0 0 0 0 0 0 0 0 0 0 0 0 0 0 0 0 0 0 0 0 0 0 0 0 0 0 0 0 0 0 0 0 0 0 0 0 0 0 0 0 0 0 0 0 0 0 0 0 0 0 0 0 0 0 0 0 0 0 0 0 0 0 0 0 0 0 0 0 0 0 0 0 0 0 0 0 0 0 0 0 0 0 0 0 0 0 0 0 0 0 0 0 0 0 0 0 0 0 0 0 0 0 0 0 0 0 0 0 0 0 0 0 -0.0358473 -0.0401418 -0.0435307 -0.0430114 -0.044422 -0.0458469 -0.0464913 -0.0466991 -0.0467956 -0.0467441 -0.0464027 -0.0458944 -0.0452076 -0.0443588 -0.0433764 -0.0423061 -0.0411816 -0.0400405 -0.0388997 -0.0377892 -0.036727 -0.0357416 -0.034855 -0.0341053 -0.0335389 -0.0331638 -0.0328979 -0.0326588 -0.0324503 -0.0323212 -0.0323091 -0.0324258 -0.0326616 -0.0329957 -0.0334099 -0.0338892 -0.0344211 -0.0349966 -0.0356064 -0.0362396 -0.036883 -0.0375202 -0.0381357 -0.0387128 -0.0392227 -0.0395983 -0.0397185 -0.0394012 -0.0383993 -0.0364241 -0.0332242 -0.028615 -0.022291 -0.0132837 -2.1684e-19 
0.02 0.0199949 0.0199888 0.0199819 0.0199744 0.0199664 0.0199581 0.0199493 0.0199396 0.0199285 0.019915 0.0198977 0.0198748 0.0198443 0.0198033 0.0197491 0.019678 0.0195864 0.0194703 0.0193253 0.0191472 0.0189317 0.0186749 0.0183734 0.0180242 0.0176249 0.0171731 0.0166658 0.0160992 0.0154671 0.0147614 0.0139725 0.0130902 0.0121049 0.0110083 0.00979328 0.00845363 0.00698263 0.00537215 0.00361202 0.00169021 -0.000409121 -0.00270229 -0.00521538 -0.00797553 -0.0110094 -0.0143521 -0.0180586 -0.0222346 -0.0267107 -0.0317717 -0.0372904 -0.0437935 -0.0491051 -0.0608847 -0.0756216 0 0 0 0 0 0 0 0 0 0 0 0 0 0 0 0 0 0 0 0 0 0 0 0 0 0 0 0 0 0 0 0 0 0 0 0 0 0 0 0 0 0 0 0 0 0 0 0 0 0 0 0 0 0 0 0 0 0 0 0 0 0 0 0 0 0 0 0 0 0 0 0 0 0 0 0 0 0 0 0 0 0 0 0 0 0 0 0 0 0 0 0 0 0 0 0 0 0 0 0 0 0 0 0 0 0 0 0 0 0 0 0 0 0 0 0 0 0 0 0 0 0 0 0 0 0 0 0 0 0 0 0 0 0 0 0 0 0 0 0 0 0 0 0 0 0 0 0 0 0 0 0 0 0 0 0 0 0 0 0 0 0 0 0 0 0 0 0 0 0 0 0 0 0 0 0 0 0 0 0 0 0 0 0 0 0 0 0 0 0 0 0 0 0 0 0 0 0 0 0 0 0 0 0 0 0 0 0 0 0 0 0 0 0 0 0 0 0 0 0 0 0 0 0 0 0 0 0 0 0 0 0 0 0 0 0 0 0 0 0 0 0 0 0 0 0 0 0 0 0 0 0 0 0 0 0 0 0 0 0 0 0 0 0 0 0 0 0 0 0 0 0 0 0 0 0 0 0 0 0 0 0 0 0 0 0 0 0 0 0 0 0 0 0 0 0 0 0 0 0 0 0 0 0 0 0 0 0 0 0 0 0 0 0 0 0 0 0 0 0 0 0 0 0 0 0 0 0 0 0 0 0 0 0 0 0 0 0 0 0 0 0 0 0 0 0 0 0 0 0 0 0 0 0 0 0 0 0 0 0 0 0 0 0 0 0 0 0 0 0 0 0 0 0 0 0 0 0 0 0 0 0 0 0 0 0 0 0 0 0 0 0 0 0 0 0 0 0 0 0 0 0 0 0 0 0 0 0 0 0 0 0 0 0 0 0 0 0 0 0 0 0 0 0 0 0 0 0 0 0 0 0 0 0 0 0 0 0 0 0 0 0 0 0 0 0 0 0 0 0 0 0 0 0 0 0 0 0 0 0 0 0 0 0 0 0 0 0 0 0 0 0 0 0 0 0 0 0 0 0 0 0 0 0 0 0 0 0 0 0 0 0 0 0 0 0 0 0 0 0 0 0 0 0 0 0 0 0 0 -0.0391818 -0.040724 -0.0430293 -0.0443501 -0.0445976 -0.0453249 -0.0457741 -0.0460129 -0.0459709 -0.0460113 -0.0459051 -0.0455636 -0.0450958 -0.044484 -0.043741 -0.0428745 -0.0419175 -0.0408957 -0.0398442 -0.0387796 -0.0377354 -0.0367301 -0.0357928 -0.0349441 -0.0342122 -0.0336308 -0.0332175 -0.0329489 -0.032764 -0.0326279 -0.0325522 -0.0325635 -0.0326779 -0.0328961 -0.0332088 -0.0336027 -0.0340644 -0.0345812 -0.0351412 -0.0357322 -0.0363412 -0.0369554 -0.0375634 -0.0381568 -0.0387249 -0.0392399 -0.039631 -0.0397661 -0.0394521 -0.038461 -0.0365574 -0.033524 -0.0291032 -0.0228049 -0.0136233 -1.95156e-18 
0.02 0.0199942 0.0199873 0.0199793 0.0199705 0.0199611 0.0199511 0.0199405 0.0199289 0.0199159 0.0199006 0.019882 0.0198585 0.0198282 0.0197887 0.0197375 0.0196712 0.0195866 0.0194798 0.0193468 0.0191836 0.0189863 0.0187513 0.0184752 0.018155 0.0177874 0.0173692 0.0168957 0.0163614 0.0157589 0.0150794 0.0143129 0.0134495 0.0124798 0.0113951 0.0101874 0.00884824 0.00736915 0.00574041 0.00395064 0.00198647 -0.000167469 -0.00252955 -0.00512115 -0.00797412 -0.0111157 -0.0145652 -0.0183741 -0.0225559 -0.0271721 -0.0321103 -0.0376948 -0.0436794 -0.0504782 -0.057438 -0.0663072 -0.0783046 -0.0914945 0 0 0 0 0 0 0 0 0 0 0 0 0 0 0 0 0 0 0 0 0 0 0 0 0 0 0 0 0 0 0 0 0 0 0 0 0 0 0 0 0 0 0 0 0 0 0 0 0 0 0 0 0 0 0 0 0 0 0 0 0 0 0 0 0 0 0 0 0 0 0 0 0 0 0 0 0 0 0 0 0 0 0 0 0 0 0 0 0 0 0 0 0 0 0 0 0 0 0 0 0 0 0 0 0 0 0 0 0 0 0 0 0 0 0 0 0 0 0 0 0 0 0 0 0 0 0 0 0 0 0 0 -0.0798276 -0.0895721 -0.0915617 -0.092501 -0.0994127 0 0 0 0 0 0 0 0 0 0 0 0 0 0 0 0 0 0 0 0 0 0 0 0 0 0 0 0 0 0 0 0 0 0 0 0 0 0 0 0 0 0 0 0 0 0 0 0 0 0 0 0 0 0 0 0 0 0 0 0 -0.0936428 -0.0949491 -0.09111 -0.0872371 -0.0838606 -0.0813333 -0.0806426 -0.0917891 0 0 0 0 0 0 0 0 0 0 0 0 0 0 0 0 0 0 0 0 0 0 0 0 0 0 0 0 0 0 0 0 0 0 0 0 0 0 0 0 0 0 0 0 0 0 0 0 0 0 0 0 0 0 0 0 0 0 0 0 0 0 0 0 0 0 0 0 0 0 0 0 0 0 0 0 0 0 0 0 0 0 0 0 0 0 0 0 0 0 0 0 0 0 0 0 0 0 0 0 0 0 0 0 0 0 0 0 0 0 0 0 0 0 0 0 0 0 0 0 0 0 0 0 0 0 0 0 0 0 0 0 0 0 0 0 0 0 0 0 0 0 0 0 0 0 0 0 0 0 0 0 0 0 0 0 0 0 0 0 0 0 0 0 0 0 0 0 0 0 0 0 0 0 0 0 0 0 0 0 0 0 0 0 0 0 0 0 0 0 0 0 0 0 0 0 0 0 0 0 0 0 0 0 0 0 0 0 0 0 0 0 0 0 0 0 0 0 0 0 0 0 0 0 0 0 0 0 0 0 0 0 0 0 0 0 0 0 0 0 0 0 0 0 0 0 0 0 0 0 0 0 0 0 0 0 0 0 0 0 0 0 0 0 0 0 0 0 0 0 0 0 0 0 0 0 0 0 0 0 0 0 0 0 0 0 0 0 0 0 0 0 0 0 0 0 0 0 0 0 -0.040538 -0.04065 -0.0424853 -0.0431517 -0.0449285 -0.0449379 -0.0450909 -0.0455299 -0.0454666 -0.0453831 -0.0452105 -0.0451272 -0.0449498 -0.0446307 -0.0442134 -0.043695 -0.0430662 -0.0423157 -0.0414758 -0.0405639 -0.0396109 -0.0386335 -0.0376654 -0.0367276 -0.0358473 -0.0350458 -0.0343461 -0.0337753 -0.0333514 -0.0330716 -0.0329015 -0.0328071 -0.0327756 -0.0328143 -0.0329353 -0.033145 -0.0334416 -0.033817 -0.0342599 -0.0347575 -0.0352962 -0.0358622 -0.036443 -0.0370289 -0.0376141 -0.0381957 -0.0387644 -0.0392874 -0.0396882 -0.0398305 -0.0395252 -0.0385578 -0.0367172 -0.0337888 -0.0294678 -0.0231847 -0.0138862 4.33681e-19 
0.02 0.0199936 0.0199858 0.0199768 0.0199668 0.0199559 0.0199442 0.0199317 0.0199181 0.0199031 0.019886 0.0198659 0.0198415 0.0198111 0.0197729 0.0197243 0.0196627 0.0195848 0.0194874 0.0193666 0.019219 0.0190407 0.0188284 0.0185787 0.018288 0.0179526 0.0175678 0.0171279 0.016626 0.0160536 0.0154014 0.0146596 0.013818 0.0128669 0.0117969 0.0105982 0.00926109 0.00777501 0.0061285 0.0043087 0.00230113 8.96877e-05 -0.00234359 -0.0050196 -0.00796252 -0.0112006 -0.0147591 -0.0186537 -0.0229268 -0.027569 -0.0326088 -0.0380388 -0.0439876 -0.0504254 -0.0573304 -0.064724 -0.070337 -0.0834956 -0.0976668 0 0 0 0 0 0 0 0 0 0 0 0 0 0 0 0 0 0 0 0 0 0 0 0 0 0 0 0 0 0 0 0 0 0 0 0 0 0 0 0 0 0 0 0 0 0 0 0 0 0 0 0 0 0 0 0 0 0 0 0 0 0 0 0 0 0 0 0 0 0 0 0 0 0 0 0 0 0 0 0 0 0 0 0 0 0 0 0 0 0 0 0 0 0 0 0 0 0 0 0 0 0 0 0 0 0 0 0 0 0 0 0 0 0 0 -0.0995402 -0.0934666 -0.0956455 -0.0946932 -0.0963423 -0.0948699 -0.0949834 -0.0942017 -0.094412 -0.0939202 -0.0922279 -0.0909071 -0.0899131 -0.0890413 -0.0881541 -0.0872843 -0.088091 -0.0902748 -0.0917491 -0.0926996 -0.0946894 -0.0967624 -0.0965473 -0.0973182 -0.0978554 -0.0989168 -0.115459 0 0 0 0 0 0 0 0 0 0 0 0 0 0 0 0 0 0 0 0 0 0 0 0 0 0 0 0 0 0 0 0 0 0 0 0 0 0 0 0 0 0 0 0 0 0 0 0 -0.112596 -0.113204 -0.108013 -0.104419 -0.101185 -0.0983865 -0.0967559 -0.0946797 -0.0910542 -0.087549 -0.0845095 -0.0820883 -0.0809255 -0.0822424 -0.0830782 -0.0830684 -0.0940864 0 0 0 0 0 0 0 0 0 0 0 0 0 0 0 0 0 0 0 0 0 0 0 0 0 0 0 0 0 0 0 0 0 0 0 0 0 0 0 0 0 0 0 0 0 0 0 0 0 0 0 0 0 0 0 0 0 0 0 0 0 0 0 0 0 0 0 0 0 0 0 0 0 0 0 0 0 0 0 0 0 0 0 0 0 0 0 0 0 0 0 0 0 0 0 0 0 0 0 0 0 0 0 0 0 0 0 0 0 0 0 0 0 0 0 0 0 0 0 0 0 0 0 0 0 0 0 0 0 0 0 0 0 0 0 0 0 0 0 0 0 0 0 0 0 0 0 0 0 0 0 0 0 0 0 0 0 0 0 0 0 0 0 0 0 0 0 0 0 0 0 0 0 0 0 0 0 0 0 0 0 0 0 0 0 0 0 0 0 0 0 0 0 0 0 0 0 0 0 0 0 0 0 0 0 0 0 0 0 0 0 0 0 0 0 0 0 0 0 0 0 0 0 0 0 0 0 0 0 0 0 0 0 0 0 0 0 0 0 0 0 0 0 0 0 0 0 0 0 0 0 0 0 0 0 0 0 0 0 0 0 0 0 0 0 0 0 0 0 0 0 0 0 0 0 0 0 0 0 0 0 0 0 0 0 0 0 0 0 0 0 0 0 0 0 0 -0.0436002 -0.0418655 -0.0436149 -0.0453675 -0.0456471 -0.0458606 -0.0456579 -0.045634 -0.0454082 -0.0449792 -0.0446575 -0.0443907 -0.0442152 -0.0439512 -0.0436468 -0.0432933 -0.0428661 -0.0423402 -0.0417038 -0.0409814 -0.0401832 -0.0393348 -0.0384535 -0.0375716 -0.0367114 -0.035898 -0.0351526 -0.0344957 -0.0339505 -0.0335337 -0.0332511 -0.0330856 -0.0330106 -0.0330049 -0.0330643 -0.0331943 -0.0334014 -0.0336868 -0.0340456 -0.0344687 -0.0349436 -0.0354567 -0.035995 -0.0365483 -0.037111 -0.0376818 -0.0382595 -0.0388327 -0.0393641 -0.0397719 -0.03992 -0.0396279 -0.0386963 -0.0369245 -0.0340839 -0.0298265 -0.0235299 -0.0141146 -2.81893e-18 