# vtk DataFile Version 2.0
iteration 2106
ASCII

DATASET STRUCTURED_POINTS
DIMENSIONS 621 64 1
ORIGIN 0 0 0
SPACING 0.00161031 0.00161031 0.00161031

POINT_DATA 39744
SCALARS P float 1
LOOKUP_TABLE default
0 0 0 0 0 0 0 0 0 0 0 0 0 0 0 0 0 0 0 0 0 0 0 0 0 0 0 0 0 0 0 0 0 0 0 0 0 0 0 0 0 0 0 0 0 0 0 0 0 0 0 0 0 0 0 0 0 0 0 0 0 0 0 0 0 0 0 0 0 0 0 0 0 0 0 0 0 0 0 0 0 0 0 0 0 0 0 0 0 0 0 0 0 0 0 0 0 0 0 0 0 0 0 0 0 0 0 0 0 0 0 0 0 0 0 0 0 0 0 0 0 0 0 0 0 0 0 0 0 0 0 0 0 0 0 0 0 0 0 0 0 0 0 0 0 0 0 0 0 0 0 0 0 0 0 0 0 0 0 0 0 0 0 0 0 0 0 0 0 0 0 0 0 0 0 0 0 0 0 0 0 0 0 0 0 0 0 0 0 0 0 0 0 0 0 0 0 0 0 0 0 0 0 0 0 0 0 0 0 0 0 0 0 0 0 0 0 0 0 0 0 0 0 0 0 0 0 0 0 0 0 0 0 0 0 0 0 0 0 0 0 0 0 0 0 0 0 0 0 0 0 0 0 0 0 0 0 0 0 0 0 0 0 0 0 0 0 0 0 0 0 0 0 0 0 0 0 0 0 0 0 0 0 0 0 0 0 0 0 0 0 0 0 0 0 0 0 0 0 0 0 0 0 0 0 0 0 0 0 0 0 0 0 0 0 0 0 0 0 0 0 0 0 0 0 0 0 0 0 0 0 0 0 0 0 0 0 0 0 0 0 0 0 0 0 0 0 0 0 0 0 0 0 0 0 0 0 0 0 0 0 0 0 0 0 0 0 0 0 0 0 0 0 0 0 0 0 0 0 0 0 0 0 0 0 0 0 0 0 0 0 0 0 0 0 0 0 0 0 0 0 0 0 0 0 0 0 0 0 0 0 0 0 0 0 0 0 0 0 0 0 0 0 0 0 0 0 0 0 0 0 0 0 0 0 0 0 0 0 0 0 0 0 0 0 0 0 0 0 0 0 0 0 0 0 0 0 0 0 0 0 0 0 0 0 0 0 0 0 0 0 0 0 0 0 0 0 0 0 0 0 0 0 0 0 0 0 0 0 0 0 0 0 0 0 0 0 0 0 0 0 0 0 0 0 0 0 0 0 0 0 0 0 0 0 0 0 0 0 0 0 0 0 0 0 0 0 0 0 0 0 0 0 0 0 0 0 0 0 0 0 0 0 0 0 0 0 0 0 0 0 0 0 0 0 0 0 0 0 0 0 0 0 0 0 0 0 0 0 0 0 0 0 0 0 0 0 0 0 0 0 0 0 0 0 0 0 0 0 0 0 0 0 0 0 0 0 0 0 0 0 0 0 0 0 0 0 0 0 0 0 0 0 0 0 0 0 0 0 0 0 
0.02 0.02 0.02 0.02 0.02 0.02 0.02 0.02 0.02 0.02 0.02 0.02 0.02 0.02 0.02 0.02 0.02 0.02 0.02 0.02 0.02 0.02 0.02 0.02 0.02 0.02 0.02 0.02 0.02 0.02 0.02 0.02 0.02 0.02 0.02 0.02 0.02 0.02 0.02 0.02 0.02 0.02 0.02 0.02 0.02 0.02 0.02 0.02 0.02 0.02 0.02 0.02 0.02 0.02 0.02 0.02 0.02 0.02 0.02 0.02 0.02 0.02 0.02 0.02 0.02 0.02 0.02 0.02 0.02 0.02 0.02 0.02 0.02 0.02 0.02 0.02 0.02 0.02 0.02 0.02 0.02 0.02 0.02 0.02 0.02 0.02 0.02 0.02 0.02 0.02 0.02 0.02 0.02 0.02 0.02 0.02 0.02 0.02 0.02 0.02 0.02 0.02 0.02 0.02 0.02 0.02 0.02 0.02 0.02 0.02 0.02 0.02 0.02 0.02 0.02 0.02 0.02 0.02 0.02 0.02 0.02 0.02 0.02 0.02 0.02 0.02 0.02 0.02 0.02 0.02 0.02 0.02 0.02 0.02 0.02 0.02 0.02 0.02 0.02 0.02 0.02 0.02 0.02 0.02 0.02 0.02 0.02 0.02 0.02 0.02 0.02 0.02 0.02 0.02 0.02 0.02 0.02 0.02 0.02 0.02 0.02 0.02 0.02 0.02 0.02 0.02 0.02 0.02 0.02 0.02 0.02 0.02 0.02 0.02 0.02 0.02 0.02 0.02 0.02 0.02 0.02 0.02 0.02 0.02 0.02 0.02 0.02 0.02 0.02 0.02 0.02 0.02 0.02 0.02 0.02 0.02 0.02 0.02 0.02 0.02 0.02 0.02 0.02 0.0200001 0.0200001 0.0200001 0.0200001 0.0200001 0.0200002 0.0200002 0.0200002 0.0200002 0.0200003 0.0200003 0.0200003 0.0200004 0.0200004 0.0200005 0.0200005 0.0200006 0.0200006 0.0200007 0.0200008 0.0200008 0.0200009 0.020001 0.020001 0.0200011 0.0200012 0.0200012 0.0200013 0.0200014 0.0200015 0.0200016 0.0200016 0.0200017 0.0200018 0.0200018 0.0200019 0.020002 0.020002 0.020002 0.0200021 0.0200021 0.0200021 0.0200021 0.020002 0.020002 0.0200019 0.0200018 0.0200017 0.0200015 0.0200013 0.0200011 0.0200008 0.0200005 0.0200002 0.0199998 0.0199993 0.0199988 0.0199983 0.0199976 0.0199969 0.0199962 0.0199953 0.0199944 0.0199934 0.0199923 0.0199911 0.0199898 0.0199884 0.0199869 0.0199853 0.0199835 0.0199817 0.0199797 0.0199776 0.0199753 0.0199729 0.0199704 0.0199677 0.0199648 0.0199618 0.0199586 0.0199552 0.0199516 0.0199479 0.019944 0.0199399 0.0199355 0.019931 0.0199263 0.0199214 0.0199162 0.0199109 0.0199053 0.0198995 0.0198934 0.0198872 0.0198807 0.0198739 0.019867 0.0198597 0.0198523 0.0198446 0.0198366 0.0198284 0.0198199 0.0198112 0.0198023 0.0197931 0.0197836 0.0197739 0.019764 0.0197538 0.0197433 0.0197327 0.0197217 0.0197106 0.0196992 0.0196876 0.0196758 0.0196638 0.0196516 0.0196392 0.0196266 0.0196138 0.0196008 0.0195877 0.0195744 0.0195609 0.0195474 0.0195337 0.0195199 0.019506 0.019492 0.0194779 0.0194638 0.0194496 0.0194354 0.0194212 0.019407 0.0193927 0.0193786 0.0193644 0.0193503 0.0193363 0.0193223 0.0193085 0.0192947 0.0192812 0.0192677 0.0192544 0.0192414 0.0192285 0.0192158 0.0192033 0.0191911 0.0191792 0.0191675 0.0191561 0.0191451 0.0191343 0.0191239 0.0191138 0.019104 0.0190947 0.0190857 0.0190771 0.0190689 0.0190611 0.0190538 0.0190468 0.0190403 0.0190343 0.0190286 0.0190235 0.0190188 0.0190146 0.0190108 0.0190075 0.0190047 0.0190024 0.0190005 0.0189991 0.0189982 0.0189978 0.0189978 0.0189983 0.0189992 0.0190007 0.0190025 0.0190048 0.0190076 0.0190108 0.0190144 0.0190184 0.0190229 0.0190277 0.0190329 0.0190386 0.0190445 0.0190509 0.0190576 0.0190646 0.019072 0.0190797 0.0190876 0.0190959 0.0191045 0.0191133 0.0191223 0.0191316 0.0191411 0.0191509 0.0191608 0.0191709 0.0191811 0.0191915 0.0192019 0.0192125 0.0192232 0.0192339 0.0192447 0.0192555 0.0192663 0.0192771 0.0192879 0.0192987 0.0193094 0.01932 0.0193307 0.0193412 0.0193515 0.0193615 0.0193712 0.0193804 0.0193892 0.0193974 0.0194052 0.0194123 0.0194187 0.0194241 0.0194284 0.0194319 0.0194345 0.0194358 0.019436 0.0194351 0.0194332 0.01943 0.0194258 0.0194204 0.0194138 0.0194061 0.019397 0.0193867 0.019375 0.0193621 0.0193478 0.0193321 0.0193152 0.019297 0.0192775 0.019257 0.0192355 0.0192132 0.0191902 0.0191667 0.019143 0.0191194 0.0190961 0.0190737 0.0190525 0.0190331 0.0190162 0.0190024 0.0189925 0.0189875 0.0189883 0.0189957 0.0190108 0.0190343 0.019067 0.0191093 0.0191613 0.0192223 0.0192904 0.0193599 0.019411 0.0194157 0.0194199 0.0194289 0.0194264 0.0194024 0.0193476 0.0192517 0.0191036 0.0188941 0.0186328 0.0182682 0.0179247 0.0178145 0.0198106 0.017849 0 0 0 0 0 0 0 0 0 0 0 0 0 0 0 0 0 0 0 0 0 0 0 0 0 0 0 0 0 0 0 0 0 0 0 0 0 0 0 0 0 0 0 0 0 0 0 0 0 0 0 0 0 0 0 0 0 0 0 0 0 0 0 0 0 0 0 0 0 0 0 0 0 0 0 0 0 0 0 0 0 0 0 0 0 0 0 0 0 0 0 0 0 0 0 0 0 0 0 0 0 0 0 0 0 0 0 0 0 0 0 0 0 0 0 0 
0.02 0.02 0.02 0.02 0.02 0.02 0.02 0.02 0.02 0.02 0.02 0.02 0.02 0.02 0.02 0.02 0.02 0.02 0.02 0.02 0.02 0.02 0.02 0.02 0.02 0.02 0.02 0.02 0.02 0.02 0.02 0.02 0.02 0.02 0.02 0.02 0.02 0.02 0.02 0.02 0.02 0.02 0.02 0.02 0.02 0.02 0.02 0.02 0.02 0.02 0.02 0.02 0.02 0.02 0.02 0.02 0.02 0.02 0.02 0.02 0.02 0.02 0.02 0.02 0.02 0.02 0.02 0.02 0.02 0.02 0.02 0.02 0.02 0.02 0.02 0.02 0.02 0.02 0.02 0.02 0.02 0.02 0.02 0.02 0.02 0.02 0.02 0.02 0.02 0.02 0.02 0.02 0.02 0.02 0.02 0.02 0.02 0.02 0.02 0.02 0.02 0.02 0.02 0.02 0.02 0.02 0.02 0.02 0.02 0.02 0.02 0.02 0.02 0.02 0.02 0.02 0.02 0.02 0.02 0.02 0.02 0.02 0.02 0.02 0.02 0.02 0.02 0.02 0.02 0.02 0.02 0.02 0.02 0.02 0.02 0.02 0.02 0.02 0.02 0.02 0.02 0.02 0.02 0.02 0.02 0.02 0.02 0.02 0.02 0.02 0.02 0.02 0.02 0.02 0.02 0.02 0.02 0.02 0.02 0.02 0.02 0.02 0.02 0.02 0.02 0.02 0.02 0.02 0.02 0.02 0.02 0.02 0.02 0.02 0.02 0.02 0.02 0.02 0.02 0.02 0.02 0.02 0.02 0.02 0.02 0.02 0.02 0.02 0.02 0.02 0.02 0.02 0.02 0.02 0.02 0.02 0.02 0.02 0.02 0.02 0.02 0.02 0.02 0.0200001 0.0200001 0.0200001 0.0200001 0.0200001 0.0200002 0.0200002 0.0200002 0.0200002 0.0200003 0.0200003 0.0200004 0.0200004 0.0200004 0.0200005 0.0200005 0.0200006 0.0200006 0.0200007 0.0200008 0.0200008 0.0200009 0.020001 0.020001 0.0200011 0.0200012 0.0200013 0.0200013 0.0200014 0.0200015 0.0200016 0.0200017 0.0200017 0.0200018 0.0200019 0.0200019 0.020002 0.020002 0.0200021 0.0200021 0.0200021 0.0200021 0.0200021 0.0200021 0.020002 0.020002 0.0200019 0.0200017 0.0200016 0.0200014 0.0200012 0.0200009 0.0200006 0.0200003 0.0199999 0.0199994 0.0199989 0.0199983 0.0199977 0.019997 0.0199963 0.0199954 0.0199945 0.0199935 0.0199924 0.0199912 0.0199899 0.0199885 0.019987 0.0199854 0.0199837 0.0199819 0.0199799 0.0199778 0.0199755 0.0199731 0.0199706 0.0199679 0.0199651 0.019962 0.0199589 0.0199555 0.019952 0.0199482 0.0199443 0.0199402 0.0199359 0.0199314 0.0199267 0.0199218 0.0199167 0.0199114 0.0199058 0.0199 0.019894 0.0198878 0.0198813 0.0198746 0.0198677 0.0198605 0.0198531 0.0198454 0.0198375 0.0198293 0.0198209 0.0198122 0.0198033 0.0197942 0.0197848 0.0197751 0.0197652 0.0197551 0.0197447 0.0197341 0.0197232 0.0197122 0.0197008 0.0196893 0.0196776 0.0196656 0.0196535 0.0196412 0.0196286 0.0196159 0.019603 0.01959 0.0195768 0.0195634 0.01955 0.0195364 0.0195227 0.0195088 0.019495 0.019481 0.019467 0.0194529 0.0194388 0.0194246 0.0194105 0.0193964 0.0193823 0.0193682 0.0193542 0.0193403 0.0193265 0.0193127 0.0192991 0.0192856 0.0192722 0.0192591 0.0192461 0.0192333 0.0192207 0.0192083 0.0191962 0.0191843 0.0191727 0.0191614 0.0191504 0.0191397 0.0191293 0.0191192 0.0191095 0.0191002 0.0190913 0.0190827 0.0190745 0.0190667 0.0190594 0.0190524 0.0190459 0.0190399 0.0190342 0.019029 0.0190243 0.01902 0.0190162 0.0190129 0.01901 0.0190076 0.0190057 0.0190042 0.0190032 0.0190027 0.0190026 0.019003 0.0190039 0.0190052 0.0190069 0.0190091 0.0190118 0.0190148 0.0190183 0.0190222 0.0190265 0.0190312 0.0190363 0.0190418 0.0190477 0.0190539 0.0190604 0.0190673 0.0190746 0.0190821 0.0190899 0.0190981 0.0191065 0.0191151 0.0191241 0.0191332 0.0191426 0.0191522 0.0191619 0.0191719 0.019182 0.0191922 0.0192025 0.019213 0.0192236 0.0192342 0.019245 0.0192558 0.0192666 0.0192775 0.0192885 0.0192995 0.0193104 0.0193211 0.0193319 0.0193425 0.0193529 0.019363 0.0193727 0.0193821 0.019391 0.0193994 0.0194073 0.0194146 0.0194212 0.0194271 0.0194318 0.0194358 0.0194389 0.0194408 0.0194414 0.019441 0.0194394 0.0194366 0.0194327 0.0194277 0.0194214 0.019414 0.0194053 0.0193953 0.0193841 0.0193716 0.0193577 0.0193425 0.019326 0.0193082 0.0192893 0.0192692 0.0192481 0.0192261 0.0192035 0.0191803 0.0191568 0.0191334 0.0191103 0.0190878 0.0190666 0.019047 0.0190297 0.0190154 0.0190049 0.018999 0.0189987 0.0190047 0.0190181 0.0190396 0.0190699 0.0191092 0.0191574 0.0192132 0.0192731 0.0193303 0.0193739 0.0193946 0.0194102 0.0194192 0.0194149 0.0193888 0.0193322 0.0192354 0.0190882 0.0188846 0.0186405 0.0183479 0.0179995 0.0178639 0.0180895 0.0176665 0.0166815 0.0158565 0.0149627 0.0139507 0.0128647 0.0119248 0.0125872 0 0 0 0 0 0 0 0 0 0 0 0 0 0 0 0 0 0 0 0 0 0 0 0 0 0 0 0 0 0 0 0 0 0 0 0 0 0 0 0 0 0 0 0 0 0 0 0 0 0 0 0 0 0 0 0 0 0 0 0 0 0 0 0 0 0 0 0 0 0 0 0 0 0 0 0 0 0 0 0 0 0 0 0 0 0 0 0 0 0 0 0 0 0 0 0 0 0 0 0 0 0 0 0 0 0 0 0 0 
0.02 0.02 0.02 0.02 0.02 0.02 0.02 0.02 0.02 0.02 0.02 0.02 0.02 0.02 0.02 0.02 0.02 0.02 0.02 0.02 0.02 0.02 0.02 0.02 0.02 0.02 0.02 0.02 0.02 0.02 0.02 0.02 0.02 0.02 0.02 0.02 0.02 0.02 0.02 0.02 0.02 0.02 0.02 0.02 0.02 0.02 0.02 0.02 0.02 0.02 0.02 0.02 0.02 0.02 0.02 0.02 0.02 0.02 0.02 0.02 0.02 0.02 0.02 0.02 0.02 0.02 0.02 0.02 0.02 0.02 0.02 0.02 0.02 0.02 0.02 0.02 0.02 0.02 0.02 0.02 0.02 0.02 0.02 0.02 0.02 0.02 0.02 0.02 0.02 0.02 0.02 0.02 0.02 0.02 0.02 0.02 0.02 0.02 0.02 0.02 0.02 0.02 0.02 0.02 0.02 0.02 0.02 0.02 0.02 0.02 0.02 0.02 0.02 0.02 0.02 0.02 0.02 0.02 0.02 0.02 0.02 0.02 0.02 0.02 0.02 0.02 0.02 0.02 0.02 0.02 0.02 0.02 0.02 0.02 0.02 0.02 0.02 0.02 0.02 0.02 0.02 0.02 0.02 0.02 0.02 0.02 0.02 0.02 0.02 0.02 0.02 0.02 0.02 0.02 0.02 0.02 0.02 0.02 0.02 0.02 0.02 0.02 0.02 0.02 0.02 0.02 0.02 0.02 0.02 0.02 0.02 0.02 0.02 0.02 0.02 0.02 0.02 0.02 0.02 0.02 0.02 0.02 0.02 0.02 0.02 0.02 0.02 0.02 0.02 0.02 0.02 0.02 0.02 0.02 0.02 0.02 0.02 0.02 0.02 0.02 0.02 0.02 0.0200001 0.0200001 0.0200001 0.0200001 0.0200001 0.0200002 0.0200002 0.0200002 0.0200002 0.0200003 0.0200003 0.0200003 0.0200004 0.0200004 0.0200005 0.0200005 0.0200006 0.0200006 0.0200007 0.0200007 0.0200008 0.0200009 0.0200009 0.020001 0.0200011 0.0200011 0.0200012 0.0200013 0.0200014 0.0200015 0.0200015 0.0200016 0.0200017 0.0200018 0.0200018 0.0200019 0.020002 0.020002 0.0200021 0.0200021 0.0200022 0.0200022 0.0200022 0.0200022 0.0200021 0.0200021 0.020002 0.0200019 0.0200018 0.0200017 0.0200015 0.0200012 0.020001 0.0200007 0.0200004 0.02 0.0199995 0.019999 0.0199985 0.0199978 0.0199971 0.0199964 0.0199956 0.0199946 0.0199936 0.0199926 0.0199914 0.0199901 0.0199887 0.0199872 0.0199856 0.0199839 0.0199821 0.0199801 0.019978 0.0199758 0.0199734 0.0199709 0.0199682 0.0199653 0.0199623 0.0199592 0.0199558 0.0199523 0.0199486 0.0199447 0.0199406 0.0199364 0.0199319 0.0199272 0.0199223 0.0199172 0.0199119 0.0199064 0.0199006 0.0198947 0.0198885 0.019882 0.0198754 0.0198684 0.0198613 0.0198539 0.0198463 0.0198384 0.0198303 0.0198219 0.0198133 0.0198045 0.0197954 0.019786 0.0197765 0.0197666 0.0197566 0.0197463 0.0197357 0.019725 0.019714 0.0197028 0.0196914 0.0196797 0.0196679 0.0196558 0.0196436 0.0196312 0.0196186 0.0196059 0.0195929 0.0195799 0.0195667 0.0195533 0.0195399 0.0195263 0.0195127 0.0194989 0.0194851 0.0194713 0.0194573 0.0194434 0.0194294 0.0194155 0.0194015 0.0193876 0.0193737 0.0193599 0.0193462 0.0193325 0.0193189 0.0193055 0.0192922 0.019279 0.019266 0.0192531 0.0192405 0.0192281 0.0192159 0.0192039 0.0191922 0.0191807 0.0191696 0.0191587 0.0191481 0.0191379 0.019128 0.0191184 0.0191092 0.0191003 0.0190918 0.0190837 0.019076 0.0190687 0.0190619 0.0190554 0.0190494 0.0190438 0.0190386 0.0190339 0.0190296 0.0190258 0.0190224 0.0190195 0.0190171 0.0190151 0.0190136 0.0190125 0.0190119 0.0190117 0.019012 0.0190128 0.019014 0.0190156 0.0190177 0.0190202 0.0190231 0.0190264 0.0190302 0.0190343 0.0190389 0.0190438 0.0190491 0.0190548 0.0190608 0.0190672 0.0190739 0.0190809 0.0190882 0.0190959 0.0191038 0.019112 0.0191204 0.0191291 0.0191381 0.0191472 0.0191566 0.0191661 0.0191758 0.0191857 0.0191958 0.019206 0.0192163 0.0192267 0.0192374 0.0192481 0.0192589 0.0192699 0.0192808 0.0192918 0.0193029 0.0193139 0.0193249 0.0193357 0.0193462 0.0193566 0.0193666 0.0193763 0.0193857 0.0193946 0.019403 0.0194109 0.0194182 0.0194248 0.0194308 0.0194361 0.0194406 0.019444 0.0194463 0.0194475 0.0194476 0.0194464 0.019444 0.0194403 0.0194354 0.0194294 0.0194221 0.0194136 0.0194038 0.0193928 0.0193805 0.0193669 0.0193521 0.0193359 0.0193185 0.0193 0.0192804 0.0192598 0.0192384 0.0192163 0.0191937 0.0191709 0.0191481 0.0191256 0.0191038 0.0190832 0.0190643 0.0190476 0.0190339 0.0190238 0.0190183 0.0190182 0.0190244 0.0190377 0.0190589 0.0190884 0.0191264 0.0191723 0.0192238 0.0192768 0.0193254 0.0193642 0.0193908 0.0194103 0.01942 0.0194145 0.0193863 0.0193276 0.0192303 0.0190856 0.0188937 0.0186773 0.0184436 0.0181524 0.0179844 0.0177858 0.0173746 0.0165834 0.0157402 0.0148108 0.0138038 0.0128308 0.0114985 0.0109372 0.00939529 0.00731901 0.00624246 0 0 0 0 0 0 0 0 0 0 0 0 0 0 0 0 0 0 0 0 0 0 0 0 0 0 0 0 0 0 0 0 0 0 0 0 0 0 0 0 0 0 0 0 0 0 0 0 0 0 0 0 0 0 0 0 0 0 0 0 0 0 0 0 0 0 0 0 0 0 0 0 0 0 0 0 0 0 0 0 0 0 0 0 0 0 0 0 0 0 0 0 0 0 0 0 0 0 0 0 0 0 0 0 0 8.67362e-19 
0.02 0.02 0.02 0.02 0.02 0.02 0.02 0.02 0.02 0.02 0.02 0.02 0.02 0.02 0.02 0.02 0.02 0.02 0.02 0.02 0.02 0.02 0.02 0.02 0.02 0.02 0.02 0.02 0.02 0.02 0.02 0.02 0.02 0.02 0.02 0.02 0.02 0.02 0.02 0.02 0.02 0.02 0.02 0.02 0.02 0.02 0.02 0.02 0.02 0.02 0.02 0.02 0.02 0.02 0.02 0.02 0.02 0.02 0.02 0.02 0.02 0.02 0.02 0.02 0.02 0.02 0.02 0.02 0.02 0.02 0.02 0.02 0.02 0.02 0.02 0.02 0.02 0.02 0.02 0.02 0.02 0.02 0.02 0.02 0.02 0.02 0.02 0.02 0.02 0.02 0.02 0.02 0.02 0.02 0.02 0.02 0.02 0.02 0.02 0.02 0.02 0.02 0.02 0.02 0.02 0.02 0.02 0.02 0.02 0.02 0.02 0.02 0.02 0.02 0.02 0.02 0.02 0.02 0.02 0.02 0.02 0.02 0.02 0.02 0.02 0.02 0.02 0.02 0.02 0.02 0.02 0.02 0.02 0.02 0.02 0.02 0.02 0.02 0.02 0.02 0.02 0.02 0.02 0.02 0.02 0.02 0.02 0.02 0.02 0.02 0.02 0.02 0.02 0.02 0.02 0.02 0.02 0.02 0.02 0.02 0.02 0.02 0.02 0.02 0.02 0.02 0.02 0.02 0.02 0.02 0.02 0.02 0.02 0.02 0.02 0.02 0.02 0.02 0.02 0.02 0.02 0.02 0.02 0.02 0.02 0.02 0.02 0.02 0.02 0.02 0.02 0.02 0.02 0.02 0.02 0.02 0.02 0.02 0.02 0.02 0.02 0.0200001 0.0200001 0.0200001 0.0200001 0.0200001 0.0200001 0.0200002 0.0200002 0.0200002 0.0200002 0.0200003 0.0200003 0.0200004 0.0200004 0.0200004 0.0200005 0.0200005 0.0200006 0.0200006 0.0200007 0.0200008 0.0200008 0.0200009 0.020001 0.020001 0.0200011 0.0200012 0.0200013 0.0200013 0.0200014 0.0200015 0.0200016 0.0200017 0.0200017 0.0200018 0.0200019 0.020002 0.020002 0.0200021 0.0200021 0.0200022 0.0200022 0.0200022 0.0200022 0.0200022 0.0200022 0.0200022 0.0200021 0.020002 0.0200019 0.0200017 0.0200016 0.0200013 0.0200011 0.0200008 0.0200005 0.0200001 0.0199996 0.0199991 0.0199986 0.019998 0.0199973 0.0199965 0.0199957 0.0199948 0.0199938 0.0199927 0.0199916 0.0199903 0.0199889 0.0199874 0.0199859 0.0199842 0.0199823 0.0199804 0.0199783 0.0199761 0.0199737 0.0199712 0.0199685 0.0199657 0.0199627 0.0199596 0.0199562 0.0199528 0.0199491 0.0199452 0.0199412 0.0199369 0.0199325 0.0199278 0.019923 0.0199179 0.0199126 0.0199072 0.0199014 0.0198955 0.0198893 0.019883 0.0198763 0.0198695 0.0198624 0.0198551 0.0198475 0.0198397 0.0198317 0.0198234 0.0198148 0.0198061 0.0197971 0.0197878 0.0197783 0.0197686 0.0197587 0.0197485 0.0197381 0.0197274 0.0197166 0.0197055 0.0196942 0.0196827 0.019671 0.0196592 0.0196471 0.0196348 0.0196224 0.0196099 0.0195971 0.0195842 0.0195712 0.0195581 0.0195449 0.0195315 0.0195181 0.0195046 0.019491 0.0194773 0.0194637 0.01945 0.0194363 0.0194225 0.0194088 0.0193952 0.0193815 0.019368 0.0193545 0.019341 0.0193277 0.0193145 0.0193015 0.0192885 0.0192758 0.0192632 0.0192508 0.0192386 0.0192266 0.0192149 0.0192034 0.0191922 0.0191812 0.0191705 0.0191602 0.0191501 0.0191404 0.0191309 0.0191219 0.0191132 0.0191048 0.0190968 0.0190893 0.0190821 0.0190753 0.0190689 0.0190629 0.0190573 0.0190522 0.0190475 0.0190432 0.0190394 0.019036 0.0190331 0.0190306 0.0190285 0.0190269 0.0190258 0.0190251 0.0190248 0.019025 0.0190256 0.0190266 0.0190281 0.01903 0.0190323 0.019035 0.0190382 0.0190417 0.0190457 0.01905 0.0190547 0.0190597 0.0190652 0.0190709 0.019077 0.0190835 0.0190902 0.0190973 0.0191046 0.0191122 0.0191201 0.0191283 0.0191367 0.0191454 0.0191542 0.0191633 0.0191726 0.0191821 0.0191918 0.0192017 0.0192118 0.019222 0.0192324 0.019243 0.0192537 0.0192646 0.0192755 0.0192866 0.0192976 0.0193086 0.0193196 0.0193304 0.0193411 0.0193515 0.0193618 0.0193718 0.0193814 0.0193907 0.0193995 0.0194079 0.0194157 0.019423 0.0194297 0.0194357 0.0194411 0.0194457 0.0194494 0.0194523 0.0194541 0.0194548 0.0194542 0.0194524 0.0194492 0.0194448 0.0194391 0.0194322 0.019424 0.0194145 0.0194038 0.0193919 0.0193787 0.0193642 0.0193486 0.0193317 0.0193138 0.0192949 0.019275 0.0192544 0.0192331 0.0192114 0.0191896 0.0191677 0.0191463 0.0191256 0.019106 0.0190881 0.0190725 0.0190598 0.0190507 0.019046 0.0190466 0.0190532 0.0190668 0.0190878 0.0191166 0.0191531 0.019196 0.0192428 0.0192896 0.0193322 0.019368 0.0193959 0.0194159 0.0194249 0.0194176 0.0193871 0.0193266 0.0192307 0.0190948 0.018921 0.0187363 0.0185572 0.0183381 0.018005 0.0177399 0.0172098 0.0165055 0.0156723 0.0147589 0.0137883 0.0128578 0.0118968 0.0106445 0.00906938 0.00717287 0.00535907 0.00321552 0.00466839 0 0 0 0 0 0 0 0 0 0 0 0 0 0 0 0 0 0 0 0 0 0 0 0 0 0 0 0 0 0 0 0 0 0 0 0 0 0 0 0 0 0 0 0 0 0 0 0 0 0 0 0 0 0 0 0 0 0 0 0 0 0 0 0 0 0 0 0 0 0 0 0 0 0 0 0 0 0 0 0 0 0 0 0 0 0 0 0 0 0 0 0 0 0 0 0 0 0 0 0 0 0 0 2.60209e-18 
0.02 0.02 0.02 0.02 0.02 0.02 0.02 0.02 0.02 0.02 0.02 0.02 0.02 0.02 0.02 0.02 0.02 0.02 0.02 0.02 0.02 0.02 0.02 0.02 0.02 0.02 0.02 0.02 0.02 0.02 0.02 0.02 0.02 0.02 0.02 0.02 0.02 0.02 0.02 0.02 0.02 0.02 0.02 0.02 0.02 0.02 0.02 0.02 0.02 0.02 0.02 0.02 0.02 0.02 0.02 0.02 0.02 0.02 0.02 0.02 0.02 0.02 0.02 0.02 0.02 0.02 0.02 0.02 0.02 0.02 0.02 0.02 0.02 0.02 0.02 0.02 0.02 0.02 0.02 0.02 0.02 0.02 0.02 0.02 0.02 0.02 0.02 0.02 0.02 0.02 0.02 0.02 0.02 0.02 0.02 0.02 0.02 0.02 0.02 0.02 0.02 0.02 0.02 0.02 0.02 0.02 0.02 0.02 0.02 0.02 0.02 0.02 0.02 0.02 0.02 0.02 0.02 0.02 0.02 0.02 0.02 0.02 0.02 0.02 0.02 0.02 0.02 0.02 0.02 0.02 0.02 0.02 0.02 0.02 0.02 0.02 0.02 0.02 0.02 0.02 0.02 0.02 0.02 0.02 0.02 0.02 0.02 0.02 0.02 0.02 0.02 0.02 0.02 0.02 0.02 0.02 0.02 0.02 0.02 0.02 0.02 0.02 0.02 0.02 0.02 0.02 0.02 0.02 0.02 0.02 0.02 0.02 0.02 0.02 0.02 0.02 0.02 0.02 0.02 0.02 0.02 0.02 0.02 0.02 0.02 0.02 0.02 0.02 0.02 0.02 0.02 0.02 0.02 0.02 0.02 0.02 0.02 0.02 0.02 0.02 0.0200001 0.0200001 0.0200001 0.0200001 0.0200001 0.0200001 0.0200002 0.0200002 0.0200002 0.0200002 0.0200003 0.0200003 0.0200003 0.0200004 0.0200004 0.0200005 0.0200005 0.0200006 0.0200006 0.0200007 0.0200007 0.0200008 0.0200009 0.0200009 0.020001 0.0200011 0.0200012 0.0200012 0.0200013 0.0200014 0.0200015 0.0200016 0.0200016 0.0200017 0.0200018 0.0200019 0.020002 0.020002 0.0200021 0.0200022 0.0200022 0.0200023 0.0200023 0.0200023 0.0200023 0.0200023 0.0200023 0.0200023 0.0200022 0.0200021 0.020002 0.0200018 0.0200017 0.0200015 0.0200012 0.0200009 0.0200006 0.0200002 0.0199998 0.0199993 0.0199987 0.0199981 0.0199975 0.0199967 0.0199959 0.019995 0.019994 0.0199929 0.0199918 0.0199905 0.0199892 0.0199877 0.0199861 0.0199844 0.0199826 0.0199807 0.0199786 0.0199764 0.0199741 0.0199716 0.019969 0.0199662 0.0199632 0.0199601 0.0199568 0.0199533 0.0199497 0.0199459 0.0199418 0.0199376 0.0199332 0.0199286 0.0199238 0.0199188 0.0199136 0.0199081 0.0199025 0.0198966 0.0198905 0.0198842 0.0198777 0.0198709 0.0198639 0.0198566 0.0198491 0.0198414 0.0198335 0.0198253 0.0198169 0.0198082 0.0197993 0.0197902 0.0197809 0.0197713 0.0197615 0.0197514 0.0197412 0.0197307 0.01972 0.0197091 0.019698 0.0196867 0.0196752 0.0196635 0.0196517 0.0196397 0.0196275 0.0196151 0.0196027 0.01959 0.0195773 0.0195644 0.0195514 0.0195384 0.0195252 0.019512 0.0194987 0.0194854 0.019472 0.0194586 0.0194452 0.0194318 0.0194184 0.0194051 0.0193917 0.0193785 0.0193653 0.0193522 0.0193392 0.0193264 0.0193136 0.019301 0.0192886 0.0192763 0.0192642 0.0192523 0.0192407 0.0192292 0.019218 0.019207 0.0191963 0.0191859 0.0191758 0.0191659 0.0191564 0.0191472 0.0191383 0.0191298 0.0191216 0.0191138 0.0191064 0.0190993 0.0190926 0.0190863 0.0190804 0.0190749 0.0190698 0.0190651 0.0190608 0.019057 0.0190536 0.0190506 0.019048 0.0190459 0.0190442 0.0190429 0.0190421 0.0190416 0.0190416 0.0190421 0.0190429 0.0190442 0.0190459 0.019048 0.0190504 0.0190533 0.0190566 0.0190602 0.0190643 0.0190687 0.0190734 0.0190785 0.019084 0.0190897 0.0190958 0.0191022 0.019109 0.019116 0.0191233 0.0191308 0.0191387 0.0191468 0.0191551 0.0191637 0.0191725 0.0191816 0.0191909 0.0192005 0.0192102 0.0192202 0.0192304 0.0192407 0.0192512 0.0192618 0.0192726 0.0192835 0.0192943 0.0193052 0.019316 0.0193268 0.0193375 0.019348 0.0193583 0.0193684 0.0193783 0.0193878 0.019397 0.0194058 0.0194141 0.0194219 0.0194291 0.0194358 0.0194418 0.0194472 0.0194519 0.0194558 0.0194589 0.0194611 0.0194624 0.0194625 0.0194614 0.0194591 0.0194554 0.0194505 0.0194442 0.0194366 0.0194277 0.0194176 0.0194062 0.0193936 0.0193798 0.0193649 0.0193488 0.0193318 0.0193137 0.0192949 0.0192753 0.0192552 0.0192347 0.0192141 0.0191936 0.0191735 0.0191541 0.019136 0.0191194 0.0191051 0.0190937 0.0190857 0.019082 0.0190833 0.0190905 0.0191041 0.0191247 0.0191523 0.0191864 0.0192255 0.0192673 0.0193086 0.0193467 0.0193797 0.0194064 0.019425 0.0194319 0.019422 0.0193891 0.0193278 0.0192353 0.0191122 0.0189604 0.0187952 0.0186301 0.0184459 0.0181648 0.0177276 0.0171401 0.0164443 0.0156369 0.0147448 0.0138034 0.0128563 0.0118394 0.0106068 0.00911289 0.00734569 0.00536073 0.00240116 0.00534336 0 0 0 0 0 0 0 0 0 0 0 0 0 0 0 0 0 0 0 0 0 0 0 0 0 0 0 0 0 0 0 0 0 0 0 0 0 0 0 0 0 0 0 0 0 0 0 0 0 0 0 0 0 0 0 0 0 0 0 0 0 0 0 0 0 0 0 0 0 0 0 0 0 0 0 0 0 0 0 0 0 0 0 0 0 0 0 0 0 0 0 0 0 0 0 0 0 0 0 0 0 0 0 1.73472e-18 
0.02 0.02 0.02 0.02 0.02 0.02 0.02 0.02 0.02 0.02 0.02 0.02 0.02 0.02 0.02 0.02 0.02 0.02 0.02 0.02 0.02 0.02 0.02 0.02 0.02 0.02 0.02 0.02 0.02 0.02 0.02 0.02 0.02 0.02 0.02 0.02 0.02 0.02 0.02 0.02 0.02 0.02 0.02 0.02 0.02 0.02 0.02 0.02 0.02 0.02 0.02 0.02 0.02 0.02 0.02 0.02 0.02 0.02 0.02 0.02 0.02 0.02 0.02 0.02 0.02 0.02 0.02 0.02 0.02 0.02 0.02 0.02 0.02 0.02 0.02 0.02 0.02 0.02 0.02 0.02 0.02 0.02 0.02 0.02 0.02 0.02 0.02 0.02 0.02 0.02 0.02 0.02 0.02 0.02 0.02 0.02 0.02 0.02 0.02 0.02 0.02 0.02 0.02 0.02 0.02 0.02 0.02 0.02 0.02 0.02 0.02 0.02 0.02 0.02 0.02 0.02 0.02 0.02 0.02 0.02 0.02 0.02 0.02 0.02 0.02 0.02 0.02 0.02 0.02 0.02 0.02 0.02 0.02 0.02 0.02 0.02 0.02 0.02 0.02 0.02 0.02 0.02 0.02 0.02 0.02 0.02 0.02 0.02 0.02 0.02 0.02 0.02 0.02 0.02 0.02 0.02 0.02 0.02 0.02 0.02 0.02 0.02 0.02 0.02 0.02 0.02 0.02 0.02 0.02 0.02 0.02 0.02 0.02 0.02 0.02 0.02 0.02 0.02 0.02 0.02 0.02 0.02 0.02 0.02 0.02 0.02 0.02 0.02 0.02 0.02 0.02 0.02 0.02 0.02 0.02 0.02 0.02 0.02 0.02 0.0200001 0.0200001 0.0200001 0.0200001 0.0200001 0.0200001 0.0200002 0.0200002 0.0200002 0.0200002 0.0200003 0.0200003 0.0200003 0.0200004 0.0200004 0.0200004 0.0200005 0.0200005 0.0200006 0.0200006 0.0200007 0.0200008 0.0200008 0.0200009 0.020001 0.020001 0.0200011 0.0200012 0.0200013 0.0200014 0.0200014 0.0200015 0.0200016 0.0200017 0.0200018 0.0200019 0.0200019 0.020002 0.0200021 0.0200022 0.0200022 0.0200023 0.0200023 0.0200024 0.0200024 0.0200024 0.0200024 0.0200024 0.0200024 0.0200023 0.0200022 0.0200021 0.020002 0.0200018 0.0200016 0.0200013 0.0200011 0.0200007 0.0200004 0.0199999 0.0199995 0.0199989 0.0199983 0.0199976 0.0199969 0.0199961 0.0199952 0.0199942 0.0199932 0.019992 0.0199908 0.0199895 0.019988 0.0199865 0.0199848 0.019983 0.0199811 0.019979 0.0199769 0.0199746 0.0199721 0.0199695 0.0199667 0.0199638 0.0199607 0.0199575 0.019954 0.0199504 0.0199466 0.0199427 0.0199385 0.0199342 0.0199296 0.0199249 0.0199199 0.0199148 0.0199094 0.0199038 0.019898 0.019892 0.0198858 0.0198793 0.0198726 0.0198657 0.0198586 0.0198512 0.0198436 0.0198358 0.0198277 0.0198194 0.0198109 0.0198022 0.0197932 0.019784 0.0197746 0.019765 0.0197551 0.019745 0.0197348 0.0197243 0.0197136 0.0197028 0.0196917 0.0196804 0.019669 0.0196574 0.0196457 0.0196338 0.0196217 0.0196095 0.0195972 0.0195848 0.0195722 0.0195596 0.0195469 0.0195341 0.0195212 0.0195083 0.0194953 0.0194823 0.0194693 0.0194562 0.0194432 0.0194302 0.0194173 0.0194043 0.0193915 0.0193787 0.019366 0.0193534 0.0193409 0.0193286 0.0193164 0.0193043 0.0192924 0.0192807 0.0192692 0.0192578 0.0192467 0.0192359 0.0192252 0.0192148 0.0192047 0.0191949 0.0191853 0.0191761 0.0191671 0.0191584 0.0191501 0.0191421 0.0191345 0.0191272 0.0191203 0.0191137 0.0191075 0.0191017 0.0190962 0.0190912 0.0190865 0.0190822 0.0190784 0.0190749 0.0190718 0.0190692 0.019067 0.0190651 0.0190637 0.0190627 0.0190621 0.0190619 0.0190621 0.0190627 0.0190637 0.0190651 0.0190669 0.0190691 0.0190717 0.0190747 0.019078 0.0190817 0.0190857 0.0190901 0.0190948 0.0190999 0.0191053 0.019111 0.019117 0.0191234 0.01913 0.019137 0.0191442 0.0191517 0.0191595 0.0191676 0.0191759 0.0191845 0.0191934 0.0192025 0.0192119 0.0192214 0.0192312 0.0192412 0.0192514 0.0192617 0.0192721 0.0192827 0.0192932 0.0193039 0.0193145 0.0193251 0.0193356 0.0193461 0.0193564 0.0193666 0.0193765 0.0193862 0.0193956 0.0194046 0.0194133 0.0194215 0.0194292 0.0194364 0.0194431 0.0194491 0.0194546 0.0194593 0.0194633 0.0194666 0.0194691 0.0194707 0.0194714 0.0194711 0.0194696 0.0194669 0.0194629 0.0194576 0.019451 0.0194431 0.0194339 0.0194234 0.0194118 0.019399 0.0193851 0.0193701 0.0193541 0.0193373 0.0193198 0.0193015 0.0192829 0.0192639 0.0192448 0.0192259 0.0192074 0.0191897 0.0191732 0.0191583 0.0191454 0.0191353 0.0191286 0.0191259 0.0191279 0.0191353 0.0191487 0.0191683 0.0191939 0.019225 0.0192599 0.0192966 0.0193329 0.0193668 0.0193966 0.0194207 0.0194365 0.0194401 0.0194269 0.0193919 0.019331 0.0192438 0.0191332 0.0190015 0.0188473 0.0186703 0.0184412 0.0181268 0.0176789 0.0170995 0.0164067 0.0156145 0.0147409 0.0138183 0.0128464 0.0117993 0.0105955 0.00918106 0.00757066 0.00527112 -0.000259917 -0.00173426 0 0 0 0 0 0 0 0 0 0 0 0 0 0 0 0 0 0 0 0 0 0 0 0 0 0 0 0 0 0 0 0 0 0 0 0 0 0 0 0 0 0 0 0 0 0 0 0 0 0 0 0 0 0 0 0 0 0 0 0 0 0 0 0 0 0 0 0 0 0 0 0 0 0 0 0 0 0 0 0 0 0 0 0 0 0 0 0 0 0 0 0 0 0 0 0 0 0 0 0 0 0 -0.00968545 -1.0842e-18 