# vtk DataFile Version 2.0
iteration 2484
ASCII

DATASET STRUCTURED_POINTS
DIMENSIONS 621 64 1
ORIGIN 0 0 0
SPACING 0.00161031 0.00161031 0.00161031

POINT_DATA 39744
SCALARS P float 1
LOOKUP_TABLE default
0 0 0 0 0 0 0 0 0 0 0 0 0 0 0 0 0 0 0 0 0 0 0 0 0 0 0 0 0 0 0 0 0 0 0 0 0 0 0 0 0 0 0 0 0 0 0 0 0 0 0 0 0 0 0 0 0 0 0 0 0 0 0 0 0 0 0 0 0 0 0 0 0 0 0 0 0 0 0 0 0 0 0 0 0 0 0 0 0 0 0 0 0 0 0 0 0 0 0 0 0 0 0 0 0 0 0 0 0 0 0 0 0 0 0 0 0 0 0 0 0 0 0 0 0 0 0 0 0 0 0 0 0 0 0 0 0 0 0 0 0 0 0 0 0 0 0 0 0 0 0 0 0 0 0 0 0 0 0 0 0 0 0 0 0 0 0 0 0 0 0 0 0 0 0 0 0 0 0 0 0 0 0 0 0 0 0 0 0 0 0 0 0 0 0 0 0 0 0 0 0 0 0 0 0 0 0 0 0 0 0 0 0 0 0 0 0 0 0 0 0 0 0 0 0 0 0 0 0 0 0 0 0 0 0 0 0 0 0 0 0 0 0 0 0 0 0 0 0 0 0 0 0 0 0 0 0 0 0 0 0 0 0 0 0 0 0 0 0 0 0 0 0 0 0 0 0 0 0 0 0 0 0 0 0 0 0 0 0 0 0 0 0 0 0 0 0 0 0 0 0 0 0 0 0 0 0 0 0 0 0 0 0 0 0 0 0 0 0 0 0 0 0 0 0 0 0 0 0 0 0 0 0 0 0 0 0 0 0 0 0 0 0 0 0 0 0 0 0 0 0 0 0 0 0 0 0 0 0 0 0 0 0 0 0 0 0 0 0 0 0 0 0 0 0 0 0 0 0 0 0 0 0 0 0 0 0 0 0 0 0 0 0 0 0 0 0 0 0 0 0 0 0 0 0 0 0 0 0 0 0 0 0 0 0 0 0 0 0 0 0 0 0 0 0 0 0 0 0 0 0 0 0 0 0 0 0 0 0 0 0 0 0 0 0 0 0 0 0 0 0 0 0 0 0 0 0 0 0 0 0 0 0 0 0 0 0 0 0 0 0 0 0 0 0 0 0 0 0 0 0 0 0 0 0 0 0 0 0 0 0 0 0 0 0 0 0 0 0 0 0 0 0 0 0 0 0 0 0 0 0 0 0 0 0 0 0 0 0 0 0 0 0 0 0 0 0 0 0 0 0 0 0 0 0 0 0 0 0 0 0 0 0 0 0 0 0 0 0 0 0 0 0 0 0 0 0 0 0 0 0 0 0 0 0 0 0 0 0 0 0 0 0 0 0 0 0 0 0 0 0 0 0 0 0 0 0 0 0 0 0 0 0 0 0 0 0 0 0 0 0 0 0 0 0 0 0 0 0 0 0 0 0 0 0 0 0 0 0 0 0 
0.0193926 0.0194826 0.0195101 0.0195658 0.0196229 0.0196807 0.0197389 0.019797 0.019854 0.0199078 0.0199543 0.0199896 0.0200298 0.0200768 0.0201263 0.020177 0.0202283 0.0202799 0.0203314 0.0203828 0.0204339 0.0204847 0.020535 0.0205847 0.0206339 0.0206825 0.0207304 0.0207777 0.0208242 0.0208699 0.0209149 0.020959 0.0210023 0.0210447 0.0210861 0.0211266 0.0211661 0.0212045 0.021242 0.0212783 0.0213135 0.0213477 0.0213806 0.0214125 0.0214431 0.0214725 0.0215007 0.0215276 0.0215533 0.0215777 0.0216008 0.0216227 0.0216432 0.0216624 0.0216802 0.0216968 0.0217119 0.0217258 0.0217383 0.0217494 0.0217592 0.0217676 0.0217747 0.0217805 0.0217848 0.0217879 0.0217896 0.02179 0.021789 0.0217868 0.0217833 0.0217784 0.0217724 0.021765 0.0217564 0.0217466 0.0217356 0.0217235 0.0217101 0.0216957 0.0216801 0.0216635 0.0216458 0.0216271 0.0216074 0.0215868 0.0215652 0.0215427 0.0215194 0.0214953 0.0214704 0.0214448 0.0214185 0.0213915 0.0213639 0.0213358 0.0213071 0.021278 0.0212484 0.0212185 0.0211882 0.0211576 0.0211268 0.0210958 0.0210647 0.0210334 0.0210021 0.0209709 0.0209396 0.0209085 0.0208775 0.0208467 0.0208161 0.0207858 0.0207558 0.0207261 0.0206968 0.020668 0.0206396 0.0206118 0.0205844 0.0205576 0.0205314 0.0205058 0.0204809 0.0204566 0.0204329 0.02041 0.0203878 0.0203663 0.0203455 0.0203254 0.0203061 0.0202875 0.0202697 0.0202526 0.0202363 0.0202206 0.0202057 0.0201916 0.0201781 0.0201653 0.0201532 0.0201417 0.0201309 0.0201207 0.0201112 0.0201022 0.0200937 0.0200859 0.0200785 0.0200717 0.0200653 0.0200594 0.0200539 0.0200489 0.0200442 0.0200399 0.020036 0.0200323 0.020029 0.020026 0.0200232 0.0200207 0.0200185 0.0200164 0.0200146 0.0200129 0.0200114 0.02001 0.0200088 0.0200077 0.0200068 0.0200059 0.0200051 0.0200045 0.0200039 0.0200034 0.0200029 0.0200025 0.0200021 0.0200018 0.0200016 0.0200013 0.0200011 0.020001 0.0200008 0.0200007 0.0200006 0.0200005 0.0200004 0.0200003 0.0200003 0.0200002 0.0200002 0.0200002 0.0200001 0.0200001 0.0200001 0.0200001 0.0200001 0.0200001 0.02 0.02 0.02 0.02 0.02 0.02 0.02 0.02 0.02 0.02 0.02 0.02 0.02 0.02 0.02 0.02 0.02 0.02 0.02 0.02 0.02 0.02 0.02 0.02 0.02 0.02 0.02 0.02 0.02 0.02 0.02 0.02 0.02 0.02 0.0200001 0.0200001 0.0200001 0.0200001 0.0200001 0.0200001 0.0200001 0.0200001 0.0200001 0.0200001 0.0200001 0.0200002 0.0200002 0.0200002 0.0200002 0.0200002 0.0200003 0.0200003 0.0200003 0.0200003 0.0200004 0.0200004 0.0200005 0.0200005 0.0200005 0.0200006 0.0200006 0.0200007 0.0200008 0.0200008 0.0200009 0.020001 0.0200011 0.0200012 0.0200013 0.0200014 0.0200015 0.0200016 0.0200018 0.0200019 0.0200021 0.0200022 0.0200024 0.0200026 0.0200028 0.020003 0.0200033 0.0200035 0.0200038 0.020004 0.0200043 0.0200046 0.020005 0.0200053 0.0200057 0.020006 0.0200064 0.0200069 0.0200073 0.0200078 0.0200083 0.0200088 0.0200093 0.0200099 0.0200105 0.0200111 0.0200117 0.0200124 0.0200131 0.0200138 0.0200145 0.0200153 0.0200161 0.0200169 0.0200178 0.0200187 0.0200196 0.0200205 0.0200215 0.0200225 0.0200235 0.0200246 0.0200257 0.0200268 0.0200279 0.0200291 0.0200302 0.0200314 0.0200327 0.0200339 0.0200352 0.0200365 0.0200379 0.0200392 0.0200406 0.020042 0.0200434 0.0200448 0.0200463 0.0200477 0.0200492 0.0200507 0.0200522 0.0200537 0.0200552 0.0200567 0.0200582 0.0200597 0.0200612 0.0200628 0.0200643 0.0200658 0.0200672 0.0200687 0.0200702 0.0200716 0.0200731 0.0200745 0.0200758 0.0200772 0.0200785 0.0200798 0.0200811 0.0200823 0.0200836 0.0200848 0.0200859 0.0200871 0.0200881 0.0200892 0.0200902 0.0200912 0.0200921 0.020093 0.0200939 0.0200947 0.0200954 0.0200962 0.0200969 0.0200975 0.0200981 0.0200986 0.0200992 0.0200996 0.0201 0.0201004 0.0201008 0.0201011 0.0201014 0.0201016 0.0201018 0.020102 0.0201021 0.0201023 0.0201024 0.0201024 0.0201025 0.0201025 0.0201025 0.0201025 0.0201024 0.0201024 0.0201023 0.0201023 0.0201022 0.0201022 0.0201021 0.020102 0.020102 0.0201019 0.0201019 0.0201019 0.0201018 0.0201018 0.0201019 0.0201019 0.020102 0.0201021 0.0201022 0.0201023 0.0201025 0.0201027 0.0201029 0.0201032 0.0201035 0.0201038 0.0201042 0.0201046 0.0201051 0.0201055 0.0201061 0.0201067 0.0201073 0.0201079 0.0201086 0.0201094 0.0201102 0.020111 0.0201119 0.0201128 0.0201138 0.0201148 0.0201158 0.0201169 0.0201181 0.0201192 0.0201205 0.0201218 0.0201231 0.0201245 0.0201259 0.0201273 0.0201288 0.0201304 0.020132 0.0201337 0.0201354 0.0201371 0.020139 0.0201408 0.0201428 0.0201447 0.0201468 0.0201489 0.0201511 0.0201533 0.0201556 0.020158 0.0201604 0.020163 0.0201656 0.0201683 0.020171 0.0201739 0.0201769 0.0201799 0.0201831 0.0201864 0.0201897 0.0201932 0.0201968 0.0202006 0.0202044 0.0202084 0.0202125 0.0202167 0.0202211 0.0202256 0.0202303 0.020235 0.02024 0.020245 0.0202502 0.0202555 0.020261 0.0202666 0.0202723 0.0202782 0.0202841 0.0202902 0.0202964 0.0203027 0.0203091 0.0203156 0.0203221 0.0203287 0.0203354 0.020342 0.0203487 0.0203554 0.0203621 0.0203687 0.0203752 0.0203817 0.020388 0.0203942 0.0204003 0.0204062 0.020412 0.0204175 0.0204228 0.0204279 0.0204328 0.0204375 0.0204419 0.0204461 0.0204502 0.020454 0.0204576 0.0204612 0.0204645 0.0204678 0.0204711 0.0204743 0.0204775 0.0204808 0.0204842 0.0204878 0.0204916 0.0204957 0.0205001 0.0205048 0.02051 0.0205157 0.0205218 0.0205284 0.0205356 0.0205433 0.0205515 0.0205602 0.0205692 0.0205786 0.0205881 0.0205977 0.0206071 0.0206163 0.020625 0.020633 0.0206401 0.020646 0.0206506 0.0206535 0.0206546 0.0206537 0.0206505 0.0206447 0.0206362 0.0206249 0.0206104 0.0205927 0.0205716 0.0205472 0.0205191 0.0204875 0.0204521 0.0204126 0.0203688 0.0203199 0.020265 0.0202025 0.0201307 0.0200466 0.019947 0.0198276 0.0196835 0.0195092 0.0192994 0.0190493 0.0187542 0.0184064 0.0180048 0.0175678 0.0172493 0.0178414 0 0 0 0 0 0 0 0 0 0 0 0 0 0 0 0 0 0 0 0 0 0 0 0 0 0 0 0 0 0 0 
0.0193926 0.0194617 0.019511 0.0195663 0.0196231 0.0196806 0.0197383 0.0197954 0.0198507 0.0199024 0.0199494 0.0199917 0.0200363 0.0200837 0.0201331 0.0201836 0.0202348 0.0202862 0.0203376 0.0203889 0.0204399 0.0204905 0.0205407 0.0205904 0.0206394 0.0206879 0.0207357 0.0207829 0.0208293 0.0208749 0.0209197 0.0209638 0.0210069 0.0210491 0.0210905 0.0211308 0.0211702 0.0212085 0.0212458 0.021282 0.0213172 0.0213512 0.021384 0.0214157 0.0214462 0.0214755 0.0215035 0.0215303 0.0215559 0.0215802 0.0216032 0.0216248 0.0216452 0.0216643 0.021682 0.0216984 0.0217135 0.0217272 0.0217396 0.0217506 0.0217602 0.0217685 0.0217755 0.0217811 0.0217853 0.0217882 0.0217898 0.0217901 0.021789 0.0217866 0.021783 0.021778 0.0217718 0.0217643 0.0217556 0.0217457 0.0217346 0.0217223 0.0217088 0.0216943 0.0216786 0.0216618 0.021644 0.0216252 0.0216054 0.0215847 0.021563 0.0215404 0.021517 0.0214928 0.0214678 0.0214421 0.0214157 0.0213886 0.021361 0.0213328 0.021304 0.0212748 0.0212452 0.0212152 0.0211849 0.0211543 0.0211234 0.0210924 0.0210612 0.0210299 0.0209986 0.0209673 0.0209361 0.020905 0.020874 0.0208432 0.0208126 0.0207823 0.0207523 0.0207227 0.0206935 0.0206647 0.0206363 0.0206085 0.0205812 0.0205545 0.0205283 0.0205028 0.0204779 0.0204537 0.0204302 0.0204073 0.0203851 0.0203637 0.020343 0.020323 0.0203038 0.0202853 0.0202676 0.0202506 0.0202343 0.0202188 0.020204 0.0201899 0.0201765 0.0201638 0.0201518 0.0201404 0.0201297 0.0201195 0.02011 0.0201011 0.0200928 0.020085 0.0200777 0.0200709 0.0200646 0.0200587 0.0200533 0.0200483 0.0200437 0.0200394 0.0200355 0.0200319 0.0200287 0.0200257 0.020023 0.0200205 0.0200182 0.0200162 0.0200144 0.0200127 0.0200112 0.0200099 0.0200087 0.0200076 0.0200067 0.0200058 0.0200051 0.0200044 0.0200038 0.0200033 0.0200029 0.0200025 0.0200021 0.0200018 0.0200015 0.0200013 0.0200011 0.020001 0.0200008 0.0200007 0.0200006 0.0200005 0.0200004 0.0200003 0.0200003 0.0200002 0.0200002 0.0200002 0.0200001 0.0200001 0.0200001 0.0200001 0.0200001 0.0200001 0.02 0.02 0.02 0.02 0.02 0.02 0.02 0.02 0.02 0.02 0.02 0.02 0.02 0.02 0.02 0.02 0.02 0.02 0.02 0.02 0.02 0.02 0.02 0.02 0.02 0.02 0.02 0.02 0.02 0.02 0.02 0.02 0.02 0.02 0.0200001 0.0200001 0.0200001 0.0200001 0.0200001 0.0200001 0.0200001 0.0200001 0.0200001 0.0200001 0.0200001 0.0200002 0.0200002 0.0200002 0.0200002 0.0200002 0.0200003 0.0200003 0.0200003 0.0200003 0.0200004 0.0200004 0.0200004 0.0200005 0.0200005 0.0200006 0.0200006 0.0200007 0.0200008 0.0200008 0.0200009 0.020001 0.0200011 0.0200012 0.0200013 0.0200014 0.0200015 0.0200016 0.0200018 0.0200019 0.0200021 0.0200022 0.0200024 0.0200026 0.0200028 0.020003 0.0200032 0.0200035 0.0200037 0.020004 0.0200043 0.0200046 0.0200049 0.0200053 0.0200056 0.020006 0.0200064 0.0200068 0.0200073 0.0200077 0.0200082 0.0200087 0.0200093 0.0200098 0.0200104 0.020011 0.0200116 0.0200123 0.020013 0.0200137 0.0200144 0.0200152 0.020016 0.0200168 0.0200177 0.0200186 0.0200195 0.0200204 0.0200214 0.0200224 0.0200234 0.0200245 0.0200255 0.0200267 0.0200278 0.0200289 0.0200301 0.0200313 0.0200326 0.0200338 0.0200351 0.0200364 0.0200377 0.0200391 0.0200405 0.0200419 0.0200433 0.0200447 0.0200462 0.0200476 0.0200491 0.0200506 0.0200521 0.0200536 0.0200551 0.0200566 0.0200581 0.0200596 0.0200611 0.0200626 0.0200641 0.0200656 0.0200671 0.0200686 0.02007 0.0200715 0.0200729 0.0200743 0.0200757 0.020077 0.0200784 0.0200797 0.020081 0.0200822 0.0200835 0.0200847 0.0200858 0.020087 0.0200881 0.0200891 0.0200901 0.0200911 0.020092 0.0200929 0.0200938 0.0200946 0.0200954 0.0200961 0.0200968 0.0200974 0.020098 0.0200986 0.0200991 0.0200996 0.0201 0.0201004 0.0201007 0.020101 0.0201013 0.0201016 0.0201018 0.0201019 0.0201021 0.0201022 0.0201023 0.0201023 0.0201024 0.0201024 0.0201024 0.0201024 0.0201023 0.0201023 0.0201022 0.0201022 0.0201021 0.020102 0.020102 0.0201019 0.0201018 0.0201018 0.0201017 0.0201017 0.0201017 0.0201016 0.0201017 0.0201017 0.0201017 0.0201018 0.0201019 0.020102 0.0201022 0.0201024 0.0201026 0.0201028 0.0201031 0.0201034 0.0201038 0.0201042 0.0201046 0.0201051 0.0201056 0.0201062 0.0201068 0.0201074 0.0201081 0.0201088 0.0201096 0.0201104 0.0201113 0.0201122 0.0201131 0.0201141 0.0201152 0.0201163 0.0201174 0.0201186 0.0201198 0.020121 0.0201224 0.0201237 0.0201251 0.0201266 0.0201281 0.0201296 0.0201312 0.0201329 0.0201346 0.0201363 0.0201381 0.02014 0.0201419 0.0201439 0.0201459 0.020148 0.0201501 0.0201524 0.0201547 0.020157 0.0201595 0.020162 0.0201646 0.0201673 0.02017 0.0201729 0.0201759 0.0201789 0.0201821 0.0201853 0.0201887 0.0201922 0.0201958 0.0201995 0.0202033 0.0202073 0.0202114 0.0202156 0.02022 0.0202245 0.0202292 0.0202339 0.0202388 0.0202439 0.0202491 0.0202544 0.0202598 0.0202654 0.0202711 0.0202769 0.0202828 0.0202889 0.020295 0.0203013 0.0203076 0.020314 0.0203205 0.020327 0.0203336 0.0203402 0.0203469 0.0203535 0.02036 0.0203666 0.020373 0.0203794 0.0203857 0.0203918 0.0203978 0.0204036 0.0204093 0.0204147 0.02042 0.020425 0.0204298 0.0204344 0.0204388 0.0204429 0.0204468 0.0204506 0.0204542 0.0204576 0.0204609 0.0204641 0.0204672 0.0204703 0.0204735 0.0204767 0.02048 0.0204835 0.0204872 0.0204912 0.0204954 0.0205001 0.0205051 0.0205107 0.0205167 0.0205232 0.0205303 0.0205379 0.0205459 0.0205545 0.0205634 0.0205727 0.0205821 0.0205916 0.020601 0.0206101 0.0206187 0.0206266 0.0206337 0.0206396 0.0206441 0.0206471 0.0206482 0.0206473 0.0206441 0.0206384 0.0206299 0.0206185 0.0206041 0.0205864 0.0205653 0.0205407 0.0205126 0.0204808 0.0204452 0.0204056 0.0203615 0.0203123 0.0202569 0.0201941 0.0201217 0.0200371 0.0199368 0.0198168 0.019672 0.0194972 0.019287 0.0190369 0.0187426 0.0183962 0.0179982 0.0175684 0.0172458 0.0171655 0.0168534 0.0161464 0.0155598 0.0148654 0.0138411 0.0127048 0.0116951 0.0123901 0 0 0 0 0 0 0 0 0 0 0 0 0 0 0 0 0 0 0 0 0 0 0 
0.0193926 0.0194549 0.0195102 0.0195664 0.0196233 0.0196804 0.0197373 0.019793 0.0198464 0.0198967 0.0199441 0.0199902 0.0200372 0.0200856 0.0201354 0.0201861 0.0202372 0.0202886 0.02034 0.0203913 0.0204423 0.0204929 0.020543 0.0205926 0.0206417 0.0206901 0.0207379 0.020785 0.0208314 0.020877 0.0209218 0.0209658 0.0210089 0.0210511 0.0210924 0.0211327 0.021172 0.0212103 0.0212476 0.0212838 0.0213188 0.0213528 0.0213856 0.0214172 0.0214477 0.0214769 0.0215049 0.0215317 0.0215572 0.0215815 0.0216044 0.0216261 0.0216464 0.0216654 0.0216831 0.0216995 0.0217145 0.0217281 0.0217404 0.0217514 0.021761 0.0217693 0.0217762 0.0217817 0.0217859 0.0217888 0.0217903 0.0217905 0.0217894 0.021787 0.0217833 0.0217783 0.021772 0.0217645 0.0217557 0.0217457 0.0217346 0.0217222 0.0217087 0.0216941 0.0216784 0.0216616 0.0216437 0.0216248 0.021605 0.0215842 0.0215625 0.0215399 0.0215164 0.0214921 0.0214671 0.0214413 0.0214149 0.0213878 0.0213601 0.0213318 0.0213031 0.0212738 0.0212441 0.0212141 0.0211837 0.0211531 0.0211222 0.0210912 0.02106 0.0210287 0.0209974 0.0209661 0.0209348 0.0209036 0.0208726 0.0208418 0.0208112 0.0207809 0.0207509 0.0207213 0.0206921 0.0206633 0.020635 0.0206072 0.0205799 0.0205532 0.0205271 0.0205015 0.0204767 0.0204525 0.0204289 0.0204061 0.020384 0.0203626 0.0203419 0.020322 0.0203028 0.0202843 0.0202666 0.0202497 0.0202334 0.0202179 0.0202031 0.0201891 0.0201757 0.0201631 0.0201511 0.0201397 0.020129 0.0201189 0.0201095 0.0201006 0.0200923 0.0200845 0.0200772 0.0200705 0.0200642 0.0200584 0.020053 0.020048 0.0200434 0.0200392 0.0200353 0.0200317 0.0200285 0.0200255 0.0200228 0.0200203 0.0200181 0.0200161 0.0200142 0.0200126 0.0200111 0.0200098 0.0200086 0.0200075 0.0200066 0.0200058 0.020005 0.0200044 0.0200038 0.0200033 0.0200028 0.0200024 0.0200021 0.0200018 0.0200015 0.0200013 0.0200011 0.0200009 0.0200008 0.0200007 0.0200006 0.0200005 0.0200004 0.0200003 0.0200003 0.0200002 0.0200002 0.0200002 0.0200001 0.0200001 0.0200001 0.0200001 0.0200001 0.02 0.02 0.02 0.02 0.02 0.02 0.02 0.02 0.02 0.02 0.02 0.02 0.02 0.02 0.02 0.02 0.02 0.02 0.02 0.02 0.02 0.02 0.02 0.02 0.02 0.02 0.02 0.02 0.02 0.02 0.02 0.02 0.02 0.02 0.02 0.0200001 0.0200001 0.0200001 0.0200001 0.0200001 0.0200001 0.0200001 0.0200001 0.0200001 0.0200001 0.0200001 0.0200002 0.0200002 0.0200002 0.0200002 0.0200002 0.0200002 0.0200003 0.0200003 0.0200003 0.0200004 0.0200004 0.0200004 0.0200005 0.0200005 0.0200006 0.0200006 0.0200007 0.0200008 0.0200008 0.0200009 0.020001 0.0200011 0.0200012 0.0200013 0.0200014 0.0200015 0.0200016 0.0200017 0.0200019 0.020002 0.0200022 0.0200024 0.0200026 0.0200028 0.020003 0.0200032 0.0200034 0.0200037 0.020004 0.0200043 0.0200046 0.0200049 0.0200052 0.0200056 0.020006 0.0200064 0.0200068 0.0200072 0.0200077 0.0200082 0.0200087 0.0200092 0.0200097 0.0200103 0.0200109 0.0200116 0.0200122 0.0200129 0.0200136 0.0200144 0.0200151 0.0200159 0.0200167 0.0200176 0.0200185 0.0200194 0.0200203 0.0200213 0.0200223 0.0200233 0.0200243 0.0200254 0.0200265 0.0200276 0.0200288 0.02003 0.0200312 0.0200324 0.0200337 0.020035 0.0200363 0.0200376 0.0200389 0.0200403 0.0200417 0.0200431 0.0200445 0.020046 0.0200474 0.0200489 0.0200504 0.0200519 0.0200534 0.0200549 0.0200564 0.0200579 0.0200594 0.0200609 0.0200624 0.0200639 0.0200654 0.0200669 0.0200683 0.0200698 0.0200712 0.0200726 0.020074 0.0200754 0.0200768 0.0200781 0.0200794 0.0200807 0.020082 0.0200832 0.0200844 0.0200856 0.0200867 0.0200878 0.0200889 0.0200899 0.0200909 0.0200918 0.0200927 0.0200935 0.0200943 0.0200951 0.0200958 0.0200965 0.0200972 0.0200977 0.0200983 0.0200988 0.0200993 0.0200997 0.0201001 0.0201004 0.0201007 0.020101 0.0201012 0.0201014 0.0201016 0.0201017 0.0201018 0.0201019 0.020102 0.020102 0.020102 0.020102 0.0201019 0.0201019 0.0201018 0.0201017 0.0201017 0.0201016 0.0201015 0.0201014 0.0201013 0.0201012 0.0201011 0.020101 0.020101 0.0201009 0.0201009 0.0201009 0.0201008 0.0201009 0.0201009 0.020101 0.0201011 0.0201012 0.0201013 0.0201015 0.0201017 0.020102 0.0201023 0.0201026 0.020103 0.0201034 0.0201038 0.0201043 0.0201048 0.0201053 0.020106 0.0201066 0.0201073 0.020108 0.0201088 0.0201096 0.0201105 0.0201114 0.0201124 0.0201134 0.0201144 0.0201155 0.0201166 0.0201178 0.0201191 0.0201203 0.0201217 0.020123 0.0201245 0.0201259 0.0201275 0.020129 0.0201306 0.0201323 0.020134 0.0201358 0.0201377 0.0201396 0.0201415 0.0201435 0.0201456 0.0201478 0.02015 0.0201523 0.0201546 0.020157 0.0201595 0.0201621 0.0201648 0.0201676 0.0201704 0.0201734 0.0201764 0.0201796 0.0201828 0.0201862 0.0201897 0.0201933 0.0201971 0.0202009 0.0202049 0.0202091 0.0202133 0.0202177 0.0202223 0.0202269 0.0202317 0.0202367 0.0202417 0.0202469 0.0202522 0.0202577 0.0202633 0.0202689 0.0202747 0.0202806 0.0202866 0.0202927 0.0202989 0.0203052 0.0203115 0.0203179 0.0203243 0.0203308 0.0203373 0.0203438 0.0203503 0.0203568 0.0203632 0.0203695 0.0203757 0.0203819 0.0203879 0.0203937 0.0203994 0.0204049 0.0204102 0.0204152 0.0204201 0.0204247 0.0204291 0.0204333 0.0204373 0.020441 0.0204446 0.020448 0.0204512 0.0204543 0.0204574 0.0204603 0.0204632 0.0204662 0.0204692 0.0204723 0.0204756 0.0204792 0.0204829 0.020487 0.0204915 0.0204964 0.0205017 0.0205076 0.0205139 0.0205208 0.0205282 0.0205362 0.0205446 0.0205534 0.0205625 0.0205718 0.0205812 0.0205905 0.0205995 0.0206081 0.020616 0.0206231 0.020629 0.0206336 0.0206366 0.0206378 0.0206369 0.0206338 0.0206282 0.0206198 0.0206086 0.0205942 0.0205765 0.0205555 0.0205309 0.0205028 0.0204709 0.0204352 0.0203953 0.0203509 0.0203012 0.0202453 0.0201817 0.0201083 0.0200225 0.0199209 0.0197992 0.0196526 0.0194759 0.0192638 0.0190121 0.0187174 0.0183748 0.0179839 0.0175809 0.0172476 0.0170553 0.0167116 0.0161756 0.0155572 0.0147616 0.0137888 0.0127261 0.0112714 0.01058 0.00890233 0.0069051 0.00502931 0.00417769 0 0 0 0 0 0 0 0 0 0 0 0 0 0 0 0 0 0 4.33681e-19 
0.0193926 0.0194523 0.0195094 0.0195662 0.019623 0.0196797 0.0197356 0.0197899 0.019842 0.019892 0.0199402 0.0199882 0.0200367 0.0200861 0.0201363 0.0201872 0.0202385 0.02029 0.0203414 0.0203926 0.0204436 0.0204942 0.0205443 0.020594 0.020643 0.0206914 0.0207392 0.0207863 0.0208327 0.0208783 0.0209231 0.020967 0.0210101 0.0210523 0.0210936 0.0211339 0.0211732 0.0212115 0.0212488 0.0212849 0.02132 0.0213539 0.0213867 0.0214183 0.0214488 0.021478 0.021506 0.0215327 0.0215582 0.0215825 0.0216054 0.021627 0.0216473 0.0216663 0.021684 0.0217003 0.0217153 0.0217289 0.0217412 0.0217522 0.0217618 0.02177 0.0217769 0.0217824 0.0217866 0.0217894 0.0217909 0.0217911 0.0217899 0.0217875 0.0217837 0.0217787 0.0217724 0.0217648 0.021756 0.021746 0.0217348 0.0217225 0.0217089 0.0216943 0.0216785 0.0216617 0.0216438 0.0216249 0.021605 0.0215841 0.0215624 0.0215397 0.0215162 0.0214919 0.0214669 0.0214411 0.0214146 0.0213875 0.0213597 0.0213314 0.0213026 0.0212734 0.0212437 0.0212136 0.0211832 0.0211525 0.0211216 0.0210906 0.0210593 0.021028 0.0209967 0.0209654 0.0209341 0.0209029 0.0208719 0.0208411 0.0208105 0.0207801 0.0207502 0.0207205 0.0206913 0.0206625 0.0206342 0.0206064 0.0205791 0.0205524 0.0205262 0.0205007 0.0204759 0.0204517 0.0204282 0.0204053 0.0203832 0.0203618 0.0203412 0.0203213 0.0203021 0.0202836 0.020266 0.020249 0.0202328 0.0202173 0.0202026 0.0201885 0.0201752 0.0201625 0.0201506 0.0201392 0.0201286 0.0201185 0.0201091 0.0201002 0.0200919 0.0200842 0.0200769 0.0200702 0.0200639 0.0200581 0.0200527 0.0200478 0.0200432 0.020039 0.0200351 0.0200315 0.0200283 0.0200253 0.0200226 0.0200202 0.020018 0.020016 0.0200142 0.0200125 0.020011 0.0200097 0.0200085 0.0200075 0.0200066 0.0200057 0.020005 0.0200043 0.0200038 0.0200032 0.0200028 0.0200024 0.0200021 0.0200018 0.0200015 0.0200013 0.0200011 0.0200009 0.0200008 0.0200007 0.0200006 0.0200005 0.0200004 0.0200003 0.0200003 0.0200002 0.0200002 0.0200002 0.0200001 0.0200001 0.0200001 0.0200001 0.0200001 0.02 0.02 0.02 0.02 0.02 0.02 0.02 0.02 0.02 0.02 0.02 0.02 0.02 0.02 0.02 0.02 0.02 0.02 0.02 0.02 0.02 0.02 0.02 0.02 0.02 0.02 0.02 0.02 0.02 0.02 0.02 0.02 0.02 0.02 0.02 0.02 0.0200001 0.0200001 0.0200001 0.0200001 0.0200001 0.0200001 0.0200001 0.0200001 0.0200001 0.0200001 0.0200001 0.0200002 0.0200002 0.0200002 0.0200002 0.0200002 0.0200003 0.0200003 0.0200003 0.0200004 0.0200004 0.0200004 0.0200005 0.0200005 0.0200006 0.0200006 0.0200007 0.0200007 0.0200008 0.0200009 0.020001 0.020001 0.0200011 0.0200012 0.0200013 0.0200015 0.0200016 0.0200017 0.0200019 0.020002 0.0200022 0.0200023 0.0200025 0.0200027 0.0200029 0.0200032 0.0200034 0.0200036 0.0200039 0.0200042 0.0200045 0.0200048 0.0200052 0.0200055 0.0200059 0.0200063 0.0200067 0.0200071 0.0200076 0.0200081 0.0200086 0.0200091 0.0200096 0.0200102 0.0200108 0.0200114 0.0200121 0.0200128 0.0200135 0.0200142 0.020015 0.0200158 0.0200166 0.0200174 0.0200183 0.0200192 0.0200201 0.0200211 0.0200221 0.0200231 0.0200241 0.0200252 0.0200263 0.0200274 0.0200286 0.0200298 0.020031 0.0200322 0.0200334 0.0200347 0.020036 0.0200373 0.0200387 0.0200401 0.0200414 0.0200428 0.0200443 0.0200457 0.0200471 0.0200486 0.0200501 0.0200516 0.020053 0.0200545 0.020056 0.0200575 0.020059 0.0200605 0.020062 0.0200635 0.020065 0.0200665 0.0200679 0.0200694 0.0200708 0.0200722 0.0200736 0.020075 0.0200764 0.0200777 0.020079 0.0200803 0.0200815 0.0200828 0.0200839 0.0200851 0.0200862 0.0200873 0.0200884 0.0200894 0.0200903 0.0200913 0.0200922 0.020093 0.0200938 0.0200946 0.0200953 0.0200959 0.0200966 0.0200972 0.0200977 0.0200982 0.0200987 0.0200991 0.0200994 0.0200998 0.0201001 0.0201003 0.0201005 0.0201007 0.0201009 0.020101 0.0201011 0.0201011 0.0201011 0.0201011 0.0201011 0.0201011 0.020101 0.0201009 0.0201008 0.0201007 0.0201006 0.0201005 0.0201004 0.0201002 0.0201001 0.0201 0.0200999 0.0200997 0.0200996 0.0200995 0.0200995 0.0200994 0.0200993 0.0200993 0.0200993 0.0200993 0.0200994 0.0200994 0.0200995 0.0200997 0.0200998 0.0201 0.0201003 0.0201005 0.0201008 0.0201012 0.0201015 0.020102 0.0201024 0.0201029 0.0201035 0.0201041 0.0201047 0.0201054 0.0201061 0.0201069 0.0201077 0.0201085 0.0201094 0.0201104 0.0201114 0.0201124 0.0201135 0.0201147 0.0201158 0.0201171 0.0201184 0.0201197 0.0201211 0.0201225 0.020124 0.0201255 0.0201271 0.0201287 0.0201304 0.0201322 0.020134 0.0201359 0.0201378 0.0201398 0.0201418 0.0201439 0.0201461 0.0201484 0.0201507 0.0201532 0.0201556 0.0201582 0.0201609 0.0201637 0.0201665 0.0201695 0.0201725 0.0201757 0.020179 0.0201824 0.0201859 0.0201896 0.0201934 0.0201973 0.0202013 0.0202055 0.0202098 0.0202142 0.0202188 0.0202235 0.0202283 0.0202333 0.0202384 0.0202436 0.020249 0.0202544 0.02026 0.0202657 0.0202714 0.0202773 0.0202832 0.0202893 0.0202954 0.0203015 0.0203077 0.020314 0.0203203 0.0203267 0.020333 0.0203393 0.0203457 0.0203519 0.0203582 0.0203643 0.0203703 0.0203763 0.020382 0.0203877 0.0203931 0.0203984 0.0204034 0.0204083 0.0204129 0.0204173 0.0204215 0.0204254 0.0204291 0.0204326 0.0204359 0.020439 0.020442 0.0204449 0.0204476 0.0204503 0.020453 0.0204556 0.0204584 0.0204613 0.0204643 0.0204675 0.020471 0.0204749 0.0204791 0.0204837 0.0204888 0.0204944 0.0205005 0.0205072 0.0205144 0.0205221 0.0205303 0.0205389 0.0205478 0.020557 0.0205663 0.0205754 0.0205844 0.0205929 0.0206008 0.0206078 0.0206138 0.0206185 0.0206216 0.0206229 0.0206222 0.0206192 0.0206138 0.0206056 0.0205945 0.0205803 0.0205629 0.020542 0.0205175 0.0204894 0.0204575 0.0204216 0.0203814 0.0203365 0.0202862 0.0202294 0.0201646 0.0200898 0.0200022 0.0198984 0.0197743 0.0196249 0.0194451 0.0192301 0.0189759 0.0186808 0.0183439 0.0179671 0.017581 0.0172427 0.0169728 0.0166508 0.016179 0.0155785 0.0147998 0.0138917 0.0128901 0.0117875 0.0103121 0.00861631 0.00674599 0.00468961 0.00309359 0.000365651 -0.00231381 -0.00623432 0 0 0 0 0 0 0 0 0 0 0 0 0 0 0 8.67362e-19 