# vtk DataFile Version 2.0
iteration 1215
ASCII

DATASET STRUCTURED_POINTS
DIMENSIONS 621 64 1
ORIGIN 0 0 0
SPACING 0.00161031 0.00161031 0.00161031

POINT_DATA 39744
SCALARS P float 1
LOOKUP_TABLE default
0 0 0 0 0 0 0 0 0 0 0 0 0 0 0 0 0 0 0 0 0 0 0 0 0 0 0 0 0 0 0 0 0 0 0 0 0 0 0 0 0 0 0 0 0 0 0 0 0 0 0 0 0 0 0 0 0 0 0 0 0 0 0 0 0 0 0 0 0 0 0 0 0 0 0 0 0 0 0 0 0 0 0 0 0 0 0 0 0 0 0 0 0 0 0 0 0 0 0 0 0 0 0 0 0 0 0 0 0 0 0 0 0 0 0 0 0 0 0 0 0 0 0 0 0 0 0 0 0 0 0 0 0 0 0 0 0 0 0 0 0 0 0 0 0 0 0 0 0 0 0 0 0 0 0 0 0 0 0 0 0 0 0 0 0 0 0 0 0 0 0 0 0 0 0 0 0 0 0 0 0 0 0 0 0 0 0 0 0 0 0 0 0 0 0 0 0 0 0 0 0 0 0 0 0 0 0 0 0 0 0 0 0 0 0 0 0 0 0 0 0 0 0 0 0 0 0 0 0 0 0 0 0 0 0 0 0 0 0 0 0 0 0 0 0 0 0 0 0 0 0 0 0 0 0 0 0 0 0 0 0 0 0 0 0 0 0 0 0 0 0 0 0 0 0 0 0 0 0 0 0 0 0 0 0 0 0 0 0 0 0 0 0 0 0 0 0 0 0 0 0 0 0 0 0 0 0 0 0 0 0 0 0 0 0 0 0 0 0 0 0 0 0 0 0 0 0 0 0 0 0 0 0 0 0 0 0 0 0 0 0 0 0 0 0 0 0 0 0 0 0 0 0 0 0 0 0 0 0 0 0 0 0 0 0 0 0 0 0 0 0 0 0 0 0 0 0 0 0 0 0 0 0 0 0 0 0 0 0 0 0 0 0 0 0 0 0 0 0 0 0 0 0 0 0 0 0 0 0 0 0 0 0 0 0 0 0 0 0 0 0 0 0 0 0 0 0 0 0 0 0 0 0 0 0 0 0 0 0 0 0 0 0 0 0 0 0 0 0 0 0 0 0 0 0 0 0 0 0 0 0 0 0 0 0 0 0 0 0 0 0 0 0 0 0 0 0 0 0 0 0 0 0 0 0 0 0 0 0 0 0 0 0 0 0 0 0 0 0 0 0 0 0 0 0 0 0 0 0 0 0 0 0 0 0 0 0 0 0 0 0 0 0 0 0 0 0 0 0 0 0 0 0 0 0 0 0 0 0 0 0 0 0 0 0 0 0 0 0 0 0 0 0 0 0 0 0 0 0 0 0 0 0 0 0 0 0 0 0 0 0 0 0 0 0 0 0 0 0 0 0 0 0 0 0 0 0 0 0 0 0 0 0 0 0 0 0 0 0 0 0 0 0 0 0 0 0 0 0 0 0 0 0 0 0 0 0 0 0 0 0 
0.02 0.02 0.02 0.02 0.02 0.02 0.02 0.02 0.02 0.02 0.02 0.02 0.02 0.02 0.02 0.02 0.02 0.02 0.02 0.02 0.02 0.02 0.02 0.02 0.02 0.02 0.02 0.02 0.02 0.02 0.02 0.02 0.02 0.02 0.02 0.02 0.02 0.02 0.02 0.02 0.02 0.02 0.02 0.02 0.02 0.02 0.02 0.02 0.02 0.02 0.02 0.02 0.02 0.02 0.02 0.02 0.02 0.02 0.02 0.02 0.02 0.02 0.0200001 0.0200001 0.0200001 0.0200001 0.0200001 0.0200001 0.0200001 0.0200001 0.0200002 0.0200002 0.0200002 0.0200002 0.0200003 0.0200003 0.0200003 0.0200004 0.0200004 0.0200005 0.0200005 0.0200006 0.0200007 0.0200007 0.0200008 0.0200009 0.020001 0.0200012 0.0200013 0.0200014 0.0200016 0.0200018 0.020002 0.0200022 0.0200024 0.0200026 0.0200029 0.0200032 0.0200035 0.0200039 0.0200043 0.0200047 0.0200052 0.0200057 0.0200062 0.0200068 0.0200074 0.0200081 0.0200089 0.0200097 0.0200106 0.0200115 0.0200125 0.0200136 0.0200148 0.0200161 0.0200174 0.0200189 0.0200205 0.0200222 0.020024 0.0200259 0.020028 0.0200302 0.0200325 0.020035 0.0200377 0.0200405 0.0200434 0.0200466 0.0200499 0.0200534 0.0200571 0.020061 0.0200651 0.0200693 0.0200737 0.0200783 0.0200831 0.020088 0.020093 0.0200982 0.0201035 0.0201089 0.0201143 0.0201198 0.0201253 0.0201308 0.0201362 0.0201415 0.0201466 0.0201515 0.0201562 0.0201605 0.0201644 0.0201679 0.0201709 0.0201733 0.020175 0.020176 0.0201762 0.0201756 0.020174 0.0201714 0.0201678 0.020163 0.020157 0.0201498 0.0201412 0.0201313 0.0201199 0.0201066 0.0200907 0.0200737 0.0200555 0.0200361 0.0200153 0.0199931 0.0199694 0.0199443 0.0199179 0.0198901 0.0198611 0.0198308 0.0197995 0.0197671 0.0197338 0.0196996 0.0196647 0.0196291 0.019593 0.0195565 0.0195197 0.0194827 0.0194457 0.0194087 0.0193719 0.0193354 0.0192994 0.0192638 0.0192289 0.0191947 0.0191614 0.019129 0.0190977 0.0190674 0.0190384 0.0190106 0.0189841 0.018959 0.0189353 0.018913 0.0188923 0.018873 0.0188551 0.0188388 0.0188238 0.0188102 0.0187977 0.0187862 0.0187755 0.0187653 0.0187551 0.0187444 0.0187355 0.0187299 0.0187312 0.0187345 0.0187399 0.0187474 0.018757 0.0187688 0.0187826 0.0187986 0.0188166 0.0188366 0.0188585 0.0188823 0.0189078 0.0189348 0.0189633 0.0189929 0.0190235 0.0190548 0.0190865 0.0191183 0.0191496 0.0191802 0.0192094 0.0192367 0.0192614 0.0192827 0.0192998 0.0193118 0.0193176 0.0193161 0.0193061 0.0192862 0.019255 0.0192109 0.0191523 0.0190775 0.0189847 0.0188722 0.0187381 0.0185811 0.0183997 0.018193 0.0179595 0.0176996 0.0174189 0.0171178 0.0167972 0.0165064 0.0162964 0.0168634 0.0192116 0.0168412 0 0 0 0 0 0 0 0 0 0 0 0 0 0 0 0 0 0 0 0 0 0 0 0 0 0 0 0 0 0 0 0 0 0 0 0 0 0 0 0 0 0 0 0 0 0 0 0 0 0 0 0 0 0 0 0 0 0 0 0 0 0 0 0 0 0 0 0 0 0 0 0 0 0 0 0 0 0 0 0 0 0 0 0 0 0 0 0 0 0 0 0 0 0 0 0 0 0 0 0 0 0 0 0 0 0 0 0 0 0 0 0 0 0 0 0 0 0 0 0 0 0 0 0 0 0 0 0 0 0 0 0 0 0 0 0 0 0 0 0 0 0 0 0 0 0 0 0 0 0 0 0 0 0 0 0 0 0 0 0 0 0 0 0 0 0 0 0 0 0 0 0 0 0 0 0 0 0 0 0 0 0 0 0 0 0 0 0 0 0 0 0 0 0 0 0 0 0 0 0 0 0 0 0 0 0 0 0 0 0 0 0 0 0 0 0 0 0 0 0 0 0 0 0 0 0 0 0 0 0 0 0 0 0 0 0 0 0 0 0 0 0 0 0 0 0 0 0 0 0 0 0 0 0 0 0 0 0 0 0 0 0 0 0 0 0 0 0 0 0 0 0 0 0 0 0 0 0 0 0 0 0 0 0 0 0 0 0 0 0 0 0 0 0 0 0 0 0 0 0 0 0 0 0 0 0 0 0 0 0 0 0 0 0 0 0 0 0 0 0 0 0 0 0 0 0 0 0 0 0 0 0 0 0 0 0 0 0 0 0 0 0 0 
0.02 0.02 0.02 0.02 0.02 0.02 0.02 0.02 0.02 0.02 0.02 0.02 0.02 0.02 0.02 0.02 0.02 0.02 0.02 0.02 0.02 0.02 0.02 0.02 0.02 0.02 0.02 0.02 0.02 0.02 0.02 0.02 0.02 0.02 0.02 0.02 0.02 0.02 0.02 0.02 0.02 0.02 0.02 0.02 0.02 0.02 0.02 0.02 0.02 0.02 0.02 0.02 0.02 0.02 0.02 0.02 0.02 0.02 0.02 0.02 0.02 0.02 0.0200001 0.0200001 0.0200001 0.0200001 0.0200001 0.0200001 0.0200001 0.0200001 0.0200002 0.0200002 0.0200002 0.0200002 0.0200003 0.0200003 0.0200003 0.0200004 0.0200004 0.0200005 0.0200005 0.0200006 0.0200007 0.0200007 0.0200008 0.0200009 0.020001 0.0200011 0.0200013 0.0200014 0.0200016 0.0200017 0.0200019 0.0200021 0.0200024 0.0200026 0.0200029 0.0200032 0.0200035 0.0200039 0.0200042 0.0200047 0.0200051 0.0200056 0.0200061 0.0200067 0.0200074 0.020008 0.0200088 0.0200096 0.0200104 0.0200114 0.0200124 0.0200135 0.0200146 0.0200159 0.0200173 0.0200187 0.0200203 0.0200219 0.0200237 0.0200257 0.0200277 0.0200299 0.0200322 0.0200347 0.0200373 0.0200401 0.0200431 0.0200462 0.0200495 0.020053 0.0200567 0.0200605 0.0200645 0.0200688 0.0200732 0.0200777 0.0200825 0.0200873 0.0200924 0.0200975 0.0201028 0.0201082 0.0201136 0.0201191 0.0201246 0.0201301 0.0201355 0.0201408 0.0201459 0.0201508 0.0201555 0.0201598 0.0201638 0.0201673 0.0201703 0.0201728 0.0201745 0.0201756 0.0201759 0.0201754 0.0201739 0.0201714 0.0201679 0.0201632 0.0201574 0.0201503 0.0201419 0.0201321 0.0201209 0.0201078 0.0200928 0.0200763 0.0200585 0.0200394 0.0200188 0.0199969 0.0199735 0.0199488 0.0199227 0.0198952 0.0198665 0.0198367 0.0198057 0.0197736 0.0197407 0.0197068 0.0196722 0.019637 0.0196012 0.019565 0.0195285 0.0194917 0.0194549 0.0194182 0.0193816 0.0193452 0.0193093 0.0192738 0.0192389 0.0192048 0.0191714 0.019139 0.0191075 0.0190771 0.0190478 0.0190197 0.0189929 0.0189674 0.0189432 0.0189205 0.0188991 0.018879 0.0188604 0.018843 0.0188269 0.018812 0.018798 0.018785 0.0187727 0.0187609 0.0187506 0.018741 0.0187339 0.0187318 0.0187327 0.0187355 0.0187405 0.0187476 0.0187567 0.018768 0.0187815 0.018797 0.0188146 0.0188342 0.0188557 0.018879 0.0189041 0.0189307 0.0189587 0.018988 0.0190182 0.0190491 0.0190804 0.0191117 0.0191427 0.0191729 0.0192017 0.0192286 0.0192529 0.0192739 0.0192907 0.0193023 0.0193079 0.0193061 0.019296 0.019276 0.0192448 0.0192009 0.0191426 0.0190682 0.0189759 0.0188639 0.0187305 0.0185743 0.0183939 0.0181884 0.0179564 0.0177 0.0174254 0.0171479 0.0168538 0.0166424 0.0162474 0.0163589 0.016953 0.0163568 0.0154458 0.0147267 0.0141006 0.0134846 0.0128478 0.0121693 0.0114101 0.0105306 0.00952817 0.00857473 0.00777601 0.00698254 0.00729113 0 0 0 0 0 0 0 0 0 0 0 0 0 0 0 0 0 0 0 0 0 0 0 0 0 0 0 0 0 0 0 0 0 0 0 0 0 0 0 0 0 0 0 0 0 0 0 0 0 0 0 0 0 0 0 0 0 0 0 0 0 0 0 0 0 0 0 0 0 0 0 0 0 0 0 0 0 0 0 0 0 0 0 0 0 0 0 0 0 0 0 0 0 0 0 0 0 0 0 0 0 0 0 0 0 0 0 0 0 0 0 0 0 0 0 0 0 0 0 0 0 0 0 0 0 0 0 0 0 0 0 0 0 0 0 0 0 0 0 0 0 0 0 0 0 0 0 0 0 0 0 0 0 0 0 0 0 0 0 0 0 0 0 0 0 0 0 0 0 0 0 0 0 0 0 0 0 0 0 0 0 0 0 0 0 0 0 0 0 0 0 0 0 0 0 0 0 0 0 0 0 0 0 0 0 0 0 0 0 0 0 0 0 0 0 0 0 0 0 0 0 0 0 0 0 0 0 0 0 0 0 0 0 0 0 0 0 0 0 0 0 0 0 0 0 0 0 0 0 0 0 0 0 0 0 0 0 0 0 0 0 0 0 0 0 0 0 0 0 0 0 0 0 0 0 0 0 0 0 0 0 0 0 0 0 0 0 0 0 0 0 0 0 0 0 0 0 0 0 0 0 0 0 0 0 0 0 0 0 0 0 0 0 0 0 0 0 0 0 0 0 0 0 0 0 0 0 0 0 0 
0.02 0.02 0.02 0.02 0.02 0.02 0.02 0.02 0.02 0.02 0.02 0.02 0.02 0.02 0.02 0.02 0.02 0.02 0.02 0.02 0.02 0.02 0.02 0.02 0.02 0.02 0.02 0.02 0.02 0.02 0.02 0.02 0.02 0.02 0.02 0.02 0.02 0.02 0.02 0.02 0.02 0.02 0.02 0.02 0.02 0.02 0.02 0.02 0.02 0.02 0.02 0.02 0.02 0.02 0.02 0.02 0.02 0.02 0.02 0.02 0.02 0.02 0.0200001 0.0200001 0.0200001 0.0200001 0.0200001 0.0200001 0.0200001 0.0200001 0.0200002 0.0200002 0.0200002 0.0200002 0.0200003 0.0200003 0.0200003 0.0200004 0.0200004 0.0200005 0.0200005 0.0200006 0.0200006 0.0200007 0.0200008 0.0200009 0.020001 0.0200011 0.0200013 0.0200014 0.0200015 0.0200017 0.0200019 0.0200021 0.0200023 0.0200026 0.0200028 0.0200031 0.0200035 0.0200038 0.0200042 0.0200046 0.020005 0.0200055 0.0200061 0.0200066 0.0200073 0.0200079 0.0200087 0.0200095 0.0200103 0.0200112 0.0200122 0.0200133 0.0200145 0.0200157 0.020017 0.0200185 0.02002 0.0200217 0.0200235 0.0200253 0.0200274 0.0200295 0.0200318 0.0200343 0.0200369 0.0200397 0.0200426 0.0200457 0.020049 0.0200524 0.0200561 0.0200599 0.0200639 0.0200681 0.0200724 0.020077 0.0200817 0.0200865 0.0200915 0.0200966 0.0201019 0.0201072 0.0201126 0.0201181 0.0201236 0.020129 0.0201344 0.0201396 0.0201448 0.0201497 0.0201543 0.0201587 0.0201627 0.0201662 0.0201692 0.0201717 0.0201735 0.0201747 0.020175 0.0201746 0.0201732 0.0201708 0.0201674 0.0201628 0.0201571 0.0201502 0.020142 0.0201324 0.0201213 0.0201086 0.0200941 0.020078 0.0200605 0.0200417 0.0200215 0.0199999 0.0199769 0.0199525 0.0199268 0.0198997 0.0198715 0.0198421 0.0198115 0.01978 0.0197474 0.0197141 0.01968 0.0196452 0.0196099 0.0195741 0.0195381 0.0195018 0.0194654 0.019429 0.0193928 0.0193568 0.0193211 0.0192859 0.0192513 0.0192174 0.0191841 0.0191518 0.0191204 0.0190899 0.0190606 0.0190323 0.0190053 0.0189795 0.0189549 0.0189316 0.0189095 0.0188886 0.018869 0.0188505 0.018833 0.0188167 0.0188012 0.0187867 0.0187732 0.0187612 0.0187507 0.0187426 0.0187379 0.018736 0.0187364 0.0187387 0.0187432 0.0187497 0.0187583 0.0187691 0.018782 0.0187969 0.0188139 0.0188329 0.0188538 0.0188766 0.018901 0.0189271 0.0189545 0.0189831 0.0190127 0.019043 0.0190736 0.0191044 0.0191347 0.0191642 0.0191923 0.0192185 0.0192421 0.0192623 0.0192783 0.0192892 0.019294 0.0192917 0.0192809 0.0192603 0.0192287 0.0191844 0.0191259 0.0190514 0.0189591 0.0188473 0.0187142 0.0185586 0.0183791 0.0181751 0.0179474 0.0176976 0.017439 0.0171978 0.0169572 0.0167585 0.0166378 0.0163205 0.0163912 0.0159886 0.015335 0.0147024 0.0140819 0.0134581 0.012804 0.0120995 0.0113226 0.0104652 0.0095454 0.00863569 0.00782123 0.00681286 0.00620499 0.00511724 0.00377328 0.00245659 0.00102438 -0.000397489 -0.00181556 -0.00326354 0 0 0 0 0 0 0 0 0 0 0 0 0 0 0 0 0 0 0 0 0 0 0 0 0 0 0 0 0 0 0 0 0 0 0 0 0 0 0 0 0 0 0 0 0 0 0 0 0 0 0 0 0 0 0 0 0 0 0 0 0 0 0 0 0 0 0 0 0 0 0 0 0 0 0 0 0 0 0 0 0 0 0 0 0 0 0 0 0 0 0 0 0 0 0 0 0 0 0 0 0 0 0 0 0 0 0 0 0 0 0 0 0 0 0 0 0 0 0 0 0 0 0 0 0 0 0 0 0 0 0 0 0 0 0 0 0 0 0 0 0 0 0 0 0 0 0 0 0 0 0 0 0 0 0 0 0 0 0 0 0 0 0 0 0 0 0 0 0 0 0 0 0 0 0 0 0 0 0 0 0 0 0 0 0 0 0 0 0 0 0 0 0 0 0 0 0 0 0 0 0 0 0 0 0 0 0 0 0 0 0 0 0 0 0 0 0 0 0 0 0 0 0 0 0 0 0 0 0 0 0 0 0 0 0 0 0 0 0 0 0 0 0 0 0 0 0 0 0 0 0 0 0 0 0 0 0 0 0 0 0 0 0 0 0 0 0 0 0 0 0 0 0 0 0 0 0 0 0 0 0 0 0 0 0 0 0 0 0 0 0 0 0 0 0 0 0 0 0 0 0 0 0 0 0 0 0 0 0 0 0 0 0 0 0 0 0 0 0 0 0 0 -4.33681e-19 
0.02 0.02 0.02 0.02 0.02 0.02 0.02 0.02 0.02 0.02 0.02 0.02 0.02 0.02 0.02 0.02 0.02 0.02 0.02 0.02 0.02 0.02 0.02 0.02 0.02 0.02 0.02 0.02 0.02 0.02 0.02 0.02 0.02 0.02 0.02 0.02 0.02 0.02 0.02 0.02 0.02 0.02 0.02 0.02 0.02 0.02 0.02 0.02 0.02 0.02 0.02 0.02 0.02 0.02 0.02 0.02 0.02 0.02 0.02 0.02 0.02 0.02 0.0200001 0.0200001 0.0200001 0.0200001 0.0200001 0.0200001 0.0200001 0.0200001 0.0200001 0.0200002 0.0200002 0.0200002 0.0200002 0.0200003 0.0200003 0.0200004 0.0200004 0.0200004 0.0200005 0.0200006 0.0200006 0.0200007 0.0200008 0.0200009 0.020001 0.0200011 0.0200012 0.0200014 0.0200015 0.0200017 0.0200019 0.0200021 0.0200023 0.0200025 0.0200028 0.0200031 0.0200034 0.0200037 0.0200041 0.0200045 0.0200049 0.0200054 0.0200059 0.0200065 0.0200071 0.0200078 0.0200085 0.0200093 0.0200101 0.020011 0.020012 0.0200131 0.0200142 0.0200154 0.0200167 0.0200182 0.0200197 0.0200213 0.020023 0.0200249 0.0200269 0.020029 0.0200313 0.0200337 0.0200363 0.020039 0.0200419 0.020045 0.0200482 0.0200516 0.0200552 0.020059 0.0200629 0.0200671 0.0200714 0.0200758 0.0200805 0.0200853 0.0200902 0.0200953 0.0201005 0.0201058 0.0201112 0.0201166 0.020122 0.0201274 0.0201327 0.020138 0.020143 0.0201479 0.0201526 0.0201569 0.0201609 0.0201644 0.0201675 0.02017 0.0201719 0.020173 0.0201735 0.0201731 0.0201718 0.0201695 0.0201662 0.0201619 0.0201563 0.0201496 0.0201416 0.0201322 0.0201214 0.020109 0.020095 0.0200794 0.0200623 0.0200439 0.0200241 0.0200029 0.0199804 0.0199565 0.0199313 0.0199049 0.0198772 0.0198483 0.0198184 0.0197874 0.0197555 0.0197228 0.0196893 0.0196552 0.0196205 0.0195853 0.0195499 0.0195141 0.0194783 0.0194425 0.0194067 0.0193712 0.019336 0.0193012 0.0192669 0.0192332 0.0192002 0.019168 0.0191366 0.0191061 0.0190767 0.0190482 0.0190208 0.0189945 0.0189693 0.0189453 0.0189223 0.0189004 0.0188795 0.0188597 0.0188409 0.0188232 0.0188066 0.0187912 0.0187774 0.0187654 0.0187557 0.0187487 0.0187442 0.0187418 0.0187414 0.0187431 0.0187468 0.0187527 0.0187606 0.0187706 0.0187827 0.0187969 0.0188132 0.0188314 0.0188515 0.0188734 0.018897 0.0189222 0.0189487 0.0189765 0.0190052 0.0190345 0.0190643 0.019094 0.0191234 0.0191519 0.019179 0.0192042 0.0192267 0.0192458 0.0192607 0.0192705 0.0192743 0.0192709 0.0192591 0.0192378 0.0192054 0.0191606 0.0191017 0.0190269 0.0189346 0.018823 0.0186904 0.0185356 0.0183581 0.0181579 0.017938 0.0177031 0.0174682 0.0172564 0.0170767 0.0168964 0.016783 0.016587 0.0162479 0.015789 0.015236 0.0146673 0.0140665 0.013438 0.0127729 0.0120518 0.0112708 0.0104388 0.00956936 0.00870156 0.00788859 0.00705882 0.00605322 0.00493749 0.00370927 0.00241942 0.0010404 -0.000368091 -0.00180902 -0.0034801 -0.00518938 -0.00698458 -0.00884255 -0.0118483 0 0 0 0 0 0 0 0 0 0 0 0 0 0 0 0 0 0 0 0 0 0 0 0 0 0 0 0 0 0 0 0 0 0 0 0 0 0 0 0 0 0 0 0 0 0 0 0 0 0 0 0 0 0 0 0 0 0 0 0 0 0 0 0 0 0 0 0 0 0 0 0 0 0 0 0 0 0 0 0 0 0 0 0 0 0 0 0 0 0 0 0 0 0 0 0 0 0 0 0 0 0 0 0 0 0 0 0 0 0 0 0 0 0 0 0 0 0 0 0 0 0 0 0 0 0 0 0 0 0 0 0 0 0 0 0 0 0 0 0 0 0 0 0 0 0 0 0 0 0 0 0 0 0 0 0 0 0 0 0 0 0 0 0 0 0 0 0 0 0 0 0 0 0 0 0 0 0 0 0 0 0 0 0 0 0 0 0 0 0 0 0 0 0 0 0 0 0 0 0 0 0 0 0 0 0 0 0 0 0 0 0 0 0 0 0 0 0 0 0 0 0 0 0 0 0 0 0 0 0 0 0 0 0 0 0 0 0 0 0 0 0 0 0 0 0 0 0 0 0 0 0 0 0 0 0 0 0 0 0 0 0 0 0 0 0 0 0 0 0 0 0 0 0 0 0 0 0 0 0 0 0 0 0 0 0 0 0 0 0 0 0 0 0 0 0 0 0 0 0 0 0 0 0 0 0 0 0 0 0 0 0 0 0 0 0 0 0 -7.58942e-19 
0.02 0.02 0.02 0.02 0.02 0.02 0.02 0.02 0.02 0.02 0.02 0.02 0.02 0.02 0.02 0.02 0.02 0.02 0.02 0.02 0.02 0.02 0.02 0.02 0.02 0.02 0.02 0.02 0.02 0.02 0.02 0.02 0.02 0.02 0.02 0.02 0.02 0.02 0.02 0.02 0.02 0.02 0.02 0.02 0.02 0.02 0.02 0.02 0.02 0.02 0.02 0.02 0.02 0.02 0.02 0.02 0.02 0.02 0.02 0.02 0.02 0.02 0.02 0.0200001 0.0200001 0.0200001 0.0200001 0.0200001 0.0200001 0.0200001 0.0200001 0.0200002 0.0200002 0.0200002 0.0200002 0.0200003 0.0200003 0.0200003 0.0200004 0.0200004 0.0200005 0.0200005 0.0200006 0.0200007 0.0200008 0.0200009 0.020001 0.0200011 0.0200012 0.0200013 0.0200015 0.0200016 0.0200018 0.020002 0.0200022 0.0200025 0.0200027 0.020003 0.0200033 0.0200036 0.020004 0.0200044 0.0200048 0.0200053 0.0200058 0.0200063 0.0200069 0.0200076 0.0200083 0.020009 0.0200099 0.0200108 0.0200117 0.0200127 0.0200139 0.020015 0.0200163 0.0200177 0.0200192 0.0200208 0.0200225 0.0200243 0.0200263 0.0200284 0.0200306 0.020033 0.0200355 0.0200382 0.020041 0.020044 0.0200472 0.0200505 0.020054 0.0200578 0.0200616 0.0200657 0.0200699 0.0200743 0.0200789 0.0200836 0.0200885 0.0200935 0.0200986 0.0201039 0.0201092 0.0201145 0.0201198 0.0201252 0.0201304 0.0201356 0.0201407 0.0201455 0.0201501 0.0201544 0.0201584 0.0201619 0.020165 0.0201675 0.0201694 0.0201707 0.0201712 0.0201709 0.0201697 0.0201676 0.0201644 0.0201603 0.0201549 0.0201484 0.0201407 0.0201316 0.0201212 0.0201092 0.0200957 0.0200806 0.0200641 0.0200462 0.020027 0.0200063 0.0199844 0.0199611 0.0199366 0.0199108 0.0198838 0.0198557 0.0198265 0.0197963 0.0197652 0.0197332 0.0197005 0.0196671 0.0196332 0.0195988 0.0195641 0.0195291 0.019494 0.0194588 0.0194237 0.0193887 0.019354 0.0193196 0.0192857 0.0192523 0.0192195 0.0191874 0.0191561 0.0191255 0.0190958 0.019067 0.0190392 0.0190122 0.0189863 0.0189613 0.0189373 0.0189142 0.0188921 0.0188711 0.0188512 0.0188325 0.0188152 0.0187996 0.0187857 0.018774 0.0187646 0.0187574 0.0187522 0.018749 0.0187478 0.0187486 0.0187514 0.0187564 0.0187634 0.0187725 0.0187836 0.0187968 0.0188121 0.0188292 0.0188483 0.0188691 0.0188917 0.0189157 0.0189411 0.0189677 0.0189952 0.0190234 0.0190519 0.0190804 0.0191085 0.0191357 0.0191615 0.0191852 0.0192063 0.019224 0.0192375 0.0192459 0.0192483 0.0192436 0.0192307 0.0192083 0.019175 0.0191295 0.01907 0.018995 0.0189027 0.0187915 0.0186598 0.0185068 0.018333 0.0181401 0.0179329 0.0177193 0.017509 0.0173222 0.0171612 0.0169942 0.0167624 0.0165222 0.0161568 0.0157004 0.0151869 0.0146313 0.0140449 0.0134147 0.0127443 0.0120181 0.0112456 0.0104382 0.0096148 0.00876608 0.00791762 0.00701208 0.00599809 0.0048707 0.00365191 0.00236829 0.00102745 -0.000404762 -0.00187673 -0.00349988 -0.0051564 -0.00689719 -0.00874724 -0.0108731 -0.0131774 -0.0152206 -0.0173975 -0.0201835 -0.0245083 0 0 0 0 0 0 0 0 0 0 0 0 0 0 0 0 0 0 0 0 0 0 0 0 0 0 0 0 0 0 0 0 0 0 0 0 0 0 0 0 0 0 0 0 0 0 0 0 0 0 0 0 0 0 0 0 0 0 0 0 0 0 0 0 0 0 0 0 0 0 0 0 0 0 0 0 0 0 0 0 0 0 0 0 0 0 0 0 0 0 0 0 0 0 0 0 0 0 0 0 0 0 0 0 0 0 0 0 0 0 0 0 0 0 0 0 0 0 0 0 0 0 0 0 0 0 0 0 0 0 0 0 0 0 0 0 0 0 0 0 0 0 0 0 0 0 0 0 0 0 0 0 0 0 0 0 0 0 0 0 0 0 0 0 0 0 0 0 0 0 0 0 0 0 0 0 0 0 0 0 0 0 0 0 0 0 0 0 0 0 0 0 0 0 0 0 0 0 0 0 0 0 0 0 0 0 0 0 0 0 0 0 0 0 0 0 0 0 0 0 0 0 0 0 0 0 0 0 0 0 0 0 0 0 0 0 0 0 0 0 0 0 0 0 0 0 0 0 0 0 0 0 0 0 0 0 0 0 0 0 0 0 0 0 0 0 0 0 0 0 0 0 0 0 0 0 0 0 0 0 0 0 0 0 0 0 0 0 0 0 0 0 0 0 0 0 0 0 0 0 0 0 0 0 0 0 0 0 0 0 0 0 -0.00472957 2.1684e-19 
0.02 0.02 0.02 0.02 0.02 0.02 0.02 0.02 0.02 0.02 0.02 0.02 0.02 0.02 0.02 0.02 0.02 0.02 0.02 0.02 0.02 0.02 0.02 0.02 0.02 0.02 0.02 0.02 0.02 0.02 0.02 0.02 0.02 0.02 0.02 0.02 0.02 0.02 0.02 0.02 0.02 0.02 0.02 0.02 0.02 0.02 0.02 0.02 0.02 0.02 0.02 0.02 0.02 0.02 0.02 0.02 0.02 0.02 0.02 0.02 0.02 0.02 0.02 0.0200001 0.0200001 0.0200001 0.0200001 0.0200001 0.0200001 0.0200001 0.0200001 0.0200002 0.0200002 0.0200002 0.0200002 0.0200003 0.0200003 0.0200003 0.0200004 0.0200004 0.0200005 0.0200005 0.0200006 0.0200007 0.0200007 0.0200008 0.0200009 0.020001 0.0200012 0.0200013 0.0200014 0.0200016 0.0200017 0.0200019 0.0200021 0.0200024 0.0200026 0.0200029 0.0200032 0.0200035 0.0200039 0.0200042 0.0200047 0.0200051 0.0200056 0.0200061 0.0200067 0.0200073 0.020008 0.0200088 0.0200095 0.0200104 0.0200113 0.0200123 0.0200134 0.0200146 0.0200158 0.0200172 0.0200186 0.0200202 0.0200218 0.0200236 0.0200255 0.0200275 0.0200297 0.020032 0.0200345 0.0200371 0.0200398 0.0200428 0.0200459 0.0200491 0.0200526 0.0200562 0.02006 0.020064 0.0200681 0.0200724 0.0200769 0.0200816 0.0200863 0.0200913 0.0200963 0.0201014 0.0201066 0.0201118 0.0201171 0.0201224 0.0201276 0.0201327 0.0201376 0.0201424 0.020147 0.0201513 0.0201552 0.0201587 0.0201618 0.0201643 0.0201663 0.0201676 0.0201682 0.020168 0.0201669 0.0201649 0.020162 0.020158 0.020153 0.0201467 0.0201393 0.0201306 0.0201206 0.0201091 0.0200962 0.0200817 0.0200658 0.0200486 0.02003 0.02001 0.0199888 0.0199663 0.0199425 0.0199175 0.0198914 0.0198641 0.0198358 0.0198065 0.0197763 0.0197453 0.0197135 0.019681 0.019648 0.0196145 0.0195807 0.0195465 0.0195122 0.0194778 0.0194434 0.0194091 0.0193749 0.0193411 0.0193076 0.0192745 0.0192419 0.0192099 0.0191785 0.0191478 0.0191178 0.0190886 0.0190601 0.0190325 0.0190057 0.0189798 0.0189548 0.0189307 0.0189076 0.0188857 0.018865 0.0188457 0.0188281 0.0188122 0.0187982 0.0187862 0.0187762 0.0187682 0.018762 0.0187578 0.0187555 0.0187553 0.0187571 0.0187609 0.0187668 0.0187747 0.0187847 0.0187967 0.0188107 0.0188266 0.0188444 0.0188639 0.0188851 0.0189078 0.0189318 0.018957 0.018983 0.0190097 0.0190367 0.0190636 0.0190901 0.0191157 0.0191398 0.0191618 0.0191812 0.0191972 0.019209 0.0192157 0.0192165 0.0192102 0.0191959 0.0191722 0.0191379 0.0190915 0.0190315 0.0189562 0.0188641 0.0187535 0.0186235 0.0184738 0.018306 0.0181238 0.017933 0.0177407 0.017554 0.0173759 0.0172067 0.0170249 0.0167953 0.0164808 0.0160887 0.0156379 0.0151423 0.0145984 0.0140188 0.0133904 0.0127202 0.0119995 0.011241 0.0104559 0.00965371 0.00882018 0.00792954 0.00699188 0.00595258 0.00481868 0.00360485 0.00232065 0.000975681 -0.000444791 -0.00196966 -0.00356934 -0.00522546 -0.0069592 -0.0088773 -0.010864 -0.0129841 -0.0149848 -0.017197 -0.0188644 -0.0223681 -0.0248277 -0.0268763 -0.0297123 -0.0359966 0 0 0 0 0 0 0 0 0 0 0 0 0 0 0 0 0 0 0 0 0 0 0 0 0 0 0 0 0 0 0 0 0 0 0 0 0 0 0 0 0 0 0 0 0 0 0 0 0 0 0 0 0 0 0 0 0 0 0 0 0 0 0 0 0 0 0 0 0 0 0 0 0 0 0 0 0 0 0 0 0 0 0 0 0 0 0 0 0 0 0 0 0 0 0 0 0 0 0 0 0 0 0 0 0 0 0 0 0 0 0 0 0 0 0 0 0 0 0 0 0 0 0 0 0 0 0 0 0 0 0 0 0 0 0 0 0 0 0 0 0 0 0 0 0 0 0 0 0 0 0 0 0 0 0 0 0 0 0 0 0 0 0 0 0 0 0 0 0 0 0 0 0 0 0 0 0 0 0 0 0 0 0 0 0 0 0 0 0 0 0 0 0 0 0 0 0 0 0 0 0 0 0 0 0 0 0 0 0 0 0 0 0 0 0 0 0 0 0 0 0 0 0 0 0 0 0 0 0 0 0 0 0 0 0 0 0 0 0 0 0 0 0 0 0 0 0 0 0 0 0 0 0 0 0 0 0 0 0 0 0 0 0 0 0 0 0 0 0 0 0 0 0 0 0 0 0 0 0 0 0 0 0 0 0 0 0 0 0 0 0 0 0 0 0 0 0 0 0 0 0 0 0 0 0 0 0 -0.0169534 -0.00861738 1.95156e-18 
0.02 0.02 0.02 0.02 0.02 0.02 0.02 0.02 0.02 0.02 0.02 0.02 0.02 0.02 0.02 0.02 0.02 0.02 0.02 0.02 0.02 0.02 0.02 0.02 0.02 0.02 0.02 0.02 0.02 0.02 0.02 0.02 0.02 0.02 0.02 0.02 0.02 0.02 0.02 0.02 0.02 0.02 0.02 0.02 0.02 0.02 0.02 0.02 0.02 0.02 0.02 0.02 0.02 0.02 0.02 0.02 0.02 0.02 0.02 0.02 0.02 0.02 0.02 0.0200001 0.0200001 0.0200001 0.0200001 0.0200001 0.0200001 0.0200001 0.0200001 0.0200002 0.0200002 0.0200002 0.0200002 0.0200002 0.0200003 0.0200003 0.0200004 0.0200004 0.0200004 0.0200005 0.0200006 0.0200006 0.0200007 0.0200008 0.0200009 0.020001 0.0200011 0.0200012 0.0200014 0.0200015 0.0200017 0.0200019 0.0200021 0.0200023 0.0200025 0.0200028 0.020003 0.0200034 0.0200037 0.0200041 0.0200045 0.0200049 0.0200054 0.0200059 0.0200064 0.020007 0.0200077 0.0200084 0.0200092 0.02001 0.0200109 0.0200119 0.0200129 0.020014 0.0200152 0.0200165 0.0200179 0.0200194 0.020021 0.0200227 0.0200246 0.0200265 0.0200286 0.0200309 0.0200332 0.0200358 0.0200385 0.0200413 0.0200443 0.0200475 0.0200508 0.0200544 0.0200581 0.0200619 0.020066 0.0200702 0.0200745 0.0200791 0.0200837 0.0200885 0.0200934 0.0200984 0.0201035 0.0201086 0.0201138 0.0201189 0.020124 0.0201291 0.0201339 0.0201387 0.0201432 0.0201474 0.0201513 0.0201548 0.0201579 0.0201604 0.0201624 0.0201638 0.0201645 0.0201644 0.0201635 0.0201617 0.0201589 0.0201552 0.0201504 0.0201445 0.0201375 0.0201292 0.0201196 0.0201087 0.0200963 0.0200826 0.0200675 0.020051 0.0200331 0.020014 0.0199936 0.0199719 0.019949 0.019925 0.0198998 0.0198735 0.0198462 0.019818 0.0197888 0.0197589 0.0197281 0.0196967 0.0196648 0.0196323 0.0195994 0.0195662 0.0195328 0.0194992 0.0194656 0.019432 0.0193985 0.0193652 0.0193321 0.0192994 0.019267 0.0192351 0.0192037 0.0191728 0.0191425 0.0191129 0.0190839 0.0190556 0.0190281 0.0190013 0.0189755 0.0189506 0.0189269 0.0189043 0.0188831 0.0188633 0.0188452 0.0188288 0.0188142 0.0188014 0.0187904 0.0187812 0.0187739 0.0187684 0.0187649 0.0187634 0.0187639 0.0187664 0.018771 0.0187776 0.0187862 0.0187968 0.0188093 0.0188237 0.01884 0.018858 0.0188775 0.0188986 0.0189209 0.0189444 0.0189687 0.0189936 0.0190188 0.0190439 0.0190685 0.0190921 0.0191143 0.0191343 0.0191517 0.0191657 0.0191755 0.0191803 0.0191792 0.0191712 0.0191553 0.0191302 0.0190947 0.0190473 0.0189867 0.0189113 0.0188195 0.0187101 0.0185827 0.0184379 0.0182784 0.0181089 0.0179351 0.017762 0.0175913 0.0174171 0.0172314 0.0170182 0.0167514 0.0164236 0.0160349 0.0155923 0.0151035 0.0145681 0.0139925 0.0133691 0.0127037 0.0119944 0.0112512 0.0104802 0.00968428 0.00885251 0.00795651 0.00697965 0.00591819 0.00477965 0.00356796 0.00227887 0.000918477 -0.000526214 -0.00204569 -0.00365417 -0.00534076 -0.00710913 -0.00894753 -0.0109939 -0.0129849 -0.0150406 -0.0172762 -0.0196965 -0.0220244 -0.0243946 -0.0261163 -0.0289046 -0.0325348 -0.0350897 -0.0369919 -0.0385448 -0.0419583 -0.0497088 0 0 0 0 0 0 0 0 0 0 0 0 0 0 0 0 0 0 0 0 0 0 0 0 0 0 0 0 0 0 0 0 0 0 0 0 0 0 0 0 0 0 0 0 0 0 0 0 0 0 0 0 0 0 0 0 0 0 0 0 0 0 0 0 0 0 0 0 0 0 0 0 0 0 0 0 0 0 0 0 0 0 0 0 0 0 0 0 0 0 0 0 0 0 0 0 0 0 0 0 0 0 0 0 0 0 0 0 0 0 0 0 0 0 0 0 0 0 0 0 0 0 0 0 0 0 0 0 0 0 0 0 0 0 0 0 0 0 0 0 0 0 0 0 0 0 0 0 0 0 0 0 0 0 0 0 0 0 0 0 0 0 0 0 0 0 0 0 0 0 0 0 0 0 0 0 0 0 0 0 0 0 0 0 0 0 0 0 0 0 0 0 0 0 0 0 0 0 0 0 0 0 0 0 0 0 0 0 0 0 0 0 0 0 0 0 0 0 0 0 0 0 0 0 0 0 0 0 0 0 0 0 0 0 0 0 0 0 0 0 0 0 0 0 0 0 0 0 0 0 0 0 0 0 0 0 0 0 0 0 0 0 0 0 0 0 0 0 0 0 0 0 0 0 0 0 0 0 0 0 0 0 0 0 0 0 0 0 0 0 0 0 0 0 0 0 0 0 0 0 -0.035082 -0.0295094 -0.0212375 -0.0115954 2.1684e-19 
0.02 0.02 0.02 0.02 0.02 0.02 0.02 0.02 0.02 0.02 0.02 0.02 0.02 0.02 0.02 0.02 0.02 0.02 0.02 0.02 0.02 0.02 0.02 0.02 0.02 0.02 0.02 0.02 0.02 0.02 0.02 0.02 0.02 0.02 0.02 0.02 0.02 0.02 0.02 0.02 0.02 0.02 0.02 0.02 0.02 0.02 0.02 0.02 0.02 0.02 0.02 0.02 0.02 0.02 0.02 0.02 0.02 0.02 0.02 0.02 0.02 0.02 0.02 0.02 0.0200001 0.0200001 0.0200001 0.0200001 0.0200001 0.0200001 0.0200001 0.0200001 0.0200002 0.0200002 0.0200002 0.0200002 0.0200003 0.0200003 0.0200003 0.0200004 0.0200004 0.0200005 0.0200005 0.0200006 0.0200007 0.0200007 0.0200008 0.0200009 0.020001 0.0200012 0.0200013 0.0200014 0.0200016 0.0200018 0.0200019 0.0200021 0.0200024 0.0200026 0.0200029 0.0200032 0.0200035 0.0200039 0.0200042 0.0200046 0.0200051 0.0200056 0.0200061 0.0200067 0.0200073 0.020008 0.0200087 0.0200095 0.0200104 0.0200113 0.0200123 0.0200134 0.0200145 0.0200158 0.0200171 0.0200185 0.0200201 0.0200217 0.0200235 0.0200254 0.0200274 0.0200295 0.0200318 0.0200343 0.0200369 0.0200396 0.0200425 0.0200456 0.0200488 0.0200522 0.0200558 0.0200595 0.0200634 0.0200675 0.0200717 0.0200761 0.0200807 0.0200853 0.0200901 0.020095 0.0200999 0.0201049 0.0201099 0.0201149 0.0201199 0.0201248 0.0201296 0.0201343 0.0201387 0.0201428 0.0201467 0.0201502 0.0201532 0.0201558 0.0201578 0.0201593 0.02016 0.0201601 0.0201593 0.0201577 0.0201552 0.0201518 0.0201473 0.0201418 0.0201351 0.0201273 0.0201182 0.0201079 0.0200963 0.0200833 0.0200689 0.0200533 0.0200363 0.0200181 0.0199986 0.0199779 0.0199561 0.0199331 0.019909 0.0198838 0.0198577 0.0198305 0.0198026 0.0197737 0.0197442 0.019714 0.0196831 0.0196518 0.01962 0.0195879 0.0195555 0.0195228 0.0194901 0.0194573 0.0194245 0.0193918 0.0193592 0.0193268 0.0192948 0.019263 0.0192316 0.0192006 0.0191701 0.0191401 0.0191107 0.0190819 0.0190539 0.0190266 0.0190002 0.0189747 0.0189504 0.0189273 0.0189055 0.0188852 0.0188664 0.0188491 0.0188335 0.0188195 0.0188072 0.0187967 0.018788 0.0187812 0.0187763 0.0187733 0.0187723 0.0187733 0.0187763 0.0187813 0.0187883 0.0187972 0.0188081 0.0188208 0.0188353 0.0188515 0.0188693 0.0188884 0.0189089 0.0189304 0.0189527 0.0189756 0.0189987 0.0190216 0.019044 0.0190655 0.0190853 0.0191032 0.0191183 0.01913 0.0191376 0.0191403 0.0191371 0.0191272 0.0191095 0.0190828 0.019046 0.0189977 0.0189365 0.0188609 0.0187698 0.0186624 0.0185388 0.0184005 0.0182507 0.018094 0.017935 0.0177754 0.0176123 0.017438 0.0172364 0.0169981 0.0167142 0.0163782 0.0159895 0.0155516 0.0150685 0.0145403 0.0139693 0.013353 0.0126957 0.0119994 0.0112694 0.0105064 0.00970738 0.00885944 0.00794877 0.00696156 0.00589468 0.00475147 0.00353437 0.00224024 0.000867352 -0.00058525 -0.00211763 -0.00373291 -0.00544371 -0.00724598 -0.00914903 -0.0111071 -0.0131275 -0.0152095 -0.0174608 -0.0197412 -0.0220686 -0.0243971 -0.0266427 -0.0287698 -0.0319707 -0.0342799 -0.0363928 -0.0377186 -0.040765 -0.0450082 -0.0472539 -0.0484716 -0.0493173 -0.0501588 -0.053658 -0.0631944 0 0 0 0 0 0 0 0 0 0 0 0 0 0 0 0 0 0 0 0 0 0 0 0 0 0 0 0 0 0 0 0 0 0 0 0 0 0 0 0 0 0 0 0 0 0 0 0 0 0 0 0 0 0 0 0 0 0 0 0 0 0 0 0 0 0 0 0 0 0 0 0 0 0 0 0 0 0 0 0 0 0 0 0 0 0 0 0 0 0 0 0 0 0 0 0 0 0 0 0 0 0 0 0 0 0 0 0 0 0 0 0 0 0 0 0 0 0 0 0 0 0 0 0 0 0 0 0 0 0 0 0 0 0 0 0 0 0 0 0 0 0 0 0 0 0 0 0 0 0 0 0 0 0 0 0 0 0 0 0 0 0 0 0 0 0 0 0 0 0 0 0 0 0 0 0 0 0 0 0 0 0 0 0 -0.0485647 -0.0534575 -0.0550191 -0.0556174 -0.0558385 -0.0559082 -0.0558958 -0.0558347 -0.0557437 -0.0556325 -0.0555079 -0.0553751 -0.0552386 -0.0551024 -0.0549704 -0.0548457 -0.0547307 -0.0546271 -0.0545356 -0.054456 -0.0543873 -0.0543282 -0.0542771 -0.0542322 -0.0541923 -0.0541563 -0.0541237 -0.0540943 -0.0540683 -0.0540461 -0.0540284 -0.0540174 -0.0540171 -0.0540315 -0.0540614 -0.0541099 -0.0542199 -0.054311 -0.0552128 -0.0642315 0 0 0 0 0 0 0 0 0 0 0 0 0 0 0 0 0 0 0 0 0 0 0 0 0 0 0 0 0 0 0 0 0 0 0 0 0 0 0 0 0 0 0 0 0 0 0 0 0 0 0 0 0 0 0 0 0 0 0 0 0 0 0 0 -0.0487502 -0.0521932 -0.0527566 -0.0517473 -0.0487117 -0.0447445 -0.0390702 -0.0319026 -0.0234905 -0.0133221 6.50521e-19 