# vtk DataFile Version 2.0
iteration 1485
ASCII

DATASET STRUCTURED_POINTS
DIMENSIONS 621 64 1
ORIGIN 0 0 0
SPACING 0.00161031 0.00161031 0.00161031

POINT_DATA 39744
SCALARS P float 1
LOOKUP_TABLE default
0 0 0 0 0 0 0 0 0 0 0 0 0 0 0 0 0 0 0 0 0 0 0 0 0 0 0 0 0 0 0 0 0 0 0 0 0 0 0 0 0 0 0 0 0 0 0 0 0 0 0 0 0 0 0 0 0 0 0 0 0 0 0 0 0 0 0 0 0 0 0 0 0 0 0 0 0 0 0 0 0 0 0 0 0 0 0 0 0 0 0 0 0 0 0 0 0 0 0 0 0 0 0 0 0 0 0 0 0 0 0 0 0 0 0 0 0 0 0 0 0 0 0 0 0 0 0 0 0 0 0 0 0 0 0 0 0 0 0 0 0 0 0 0 0 0 0 0 0 0 0 0 0 0 0 0 0 0 0 0 0 0 0 0 0 0 0 0 0 0 0 0 0 0 0 0 0 0 0 0 0 0 0 0 0 0 0 0 0 0 0 0 0 0 0 0 0 0 0 0 0 0 0 0 0 0 0 0 0 0 0 0 0 0 0 0 0 0 0 0 0 0 0 0 0 0 0 0 0 0 0 0 0 0 0 0 0 0 0 0 0 0 0 0 0 0 0 0 0 0 0 0 0 0 0 0 0 0 0 0 0 0 0 0 0 0 0 0 0 0 0 0 0 0 0 0 0 0 0 0 0 0 0 0 0 0 0 0 0 0 0 0 0 0 0 0 0 0 0 0 0 0 0 0 0 0 0 0 0 0 0 0 0 0 0 0 0 0 0 0 0 0 0 0 0 0 0 0 0 0 0 0 0 0 0 0 0 0 0 0 0 0 0 0 0 0 0 0 0 0 0 0 0 0 0 0 0 0 0 0 0 0 0 0 0 0 0 0 0 0 0 0 0 0 0 0 0 0 0 0 0 0 0 0 0 0 0 0 0 0 0 0 0 0 0 0 0 0 0 0 0 0 0 0 0 0 0 0 0 0 0 0 0 0 0 0 0 0 0 0 0 0 0 0 0 0 0 0 0 0 0 0 0 0 0 0 0 0 0 0 0 0 0 0 0 0 0 0 0 0 0 0 0 0 0 0 0 0 0 0 0 0 0 0 0 0 0 0 0 0 0 0 0 0 0 0 0 0 0 0 0 0 0 0 0 0 0 0 0 0 0 0 0 0 0 0 0 0 0 0 0 0 0 0 0 0 0 0 0 0 0 0 0 0 0 0 0 0 0 0 0 0 0 0 0 0 0 0 0 0 0 0 0 0 0 0 0 0 0 0 0 0 0 0 0 0 0 0 0 0 0 0 0 0 0 0 0 0 0 0 0 0 0 0 0 0 0 0 0 0 0 0 0 0 0 0 0 0 0 0 0 0 0 0 0 0 0 0 0 0 0 0 0 0 0 0 0 0 0 0 0 0 0 0 0 0 0 0 0 0 0 0 0 0 0 0 0 0 0 0 0 
0.02 0.02 0.02 0.02 0.02 0.02 0.02 0.02 0.02 0.02 0.02 0.02 0.02 0.02 0.02 0.02 0.02 0.02 0.02 0.02 0.02 0.02 0.02 0.02 0.02 0.02 0.02 0.02 0.02 0.02 0.02 0.02 0.02 0.02 0.02 0.02 0.02 0.02 0.02 0.02 0.02 0.02 0.02 0.02 0.02 0.02 0.02 0.02 0.02 0.02 0.02 0.02 0.02 0.02 0.02 0.02 0.02 0.02 0.02 0.02 0.02 0.02 0.02 0.02 0.02 0.02 0.02 0.02 0.02 0.02 0.02 0.02 0.02 0.02 0.02 0.02 0.02 0.02 0.02 0.02 0.02 0.02 0.02 0.02 0.02 0.02 0.02 0.02 0.02 0.02 0.02 0.02 0.02 0.02 0.02 0.02 0.02 0.02 0.02 0.02 0.0199999 0.0199999 0.0199999 0.0199999 0.0199999 0.0199999 0.0199999 0.0199999 0.0199999 0.0199999 0.0199999 0.0199998 0.0199998 0.0199998 0.0199998 0.0199998 0.0199997 0.0199997 0.0199997 0.0199997 0.0199996 0.0199996 0.0199995 0.0199995 0.0199995 0.0199994 0.0199993 0.0199993 0.0199992 0.0199991 0.0199991 0.019999 0.0199989 0.0199988 0.0199987 0.0199986 0.0199984 0.0199983 0.0199982 0.019998 0.0199978 0.0199976 0.0199974 0.0199972 0.0199969 0.0199967 0.0199964 0.0199961 0.0199957 0.0199953 0.0199949 0.0199945 0.019994 0.0199935 0.0199929 0.0199922 0.0199916 0.0199908 0.01999 0.0199891 0.0199881 0.019987 0.0199859 0.0199846 0.0199833 0.0199818 0.0199802 0.0199785 0.0199766 0.0199746 0.0199724 0.01997 0.0199675 0.0199647 0.0199618 0.0199587 0.0199553 0.0199517 0.0199479 0.0199438 0.0199395 0.0199349 0.01993 0.0199249 0.0199195 0.0199138 0.0199078 0.0199015 0.0198949 0.019888 0.0198808 0.0198734 0.0198656 0.0198576 0.0198493 0.0198407 0.0198318 0.0198227 0.0198134 0.0198038 0.0197938 0.0197831 0.0197723 0.0197615 0.0197507 0.0197398 0.0197287 0.0197176 0.0197064 0.0196951 0.0196838 0.0196724 0.019661 0.0196496 0.0196382 0.0196269 0.0196157 0.0196045 0.0195934 0.0195824 0.0195716 0.0195608 0.0195503 0.0195398 0.0195296 0.0195195 0.0195096 0.0194999 0.0194904 0.0194811 0.019472 0.0194631 0.0194544 0.0194459 0.0194376 0.0194295 0.0194217 0.019414 0.0194065 0.0193992 0.019392 0.0193851 0.0193783 0.0193716 0.0193651 0.0193588 0.0193525 0.0193463 0.0193402 0.0193342 0.0193282 0.0193222 0.0193162 0.0193101 0.019304 0.0192977 0.0192913 0.0192847 0.0192779 0.0192708 0.0192634 0.0192556 0.0192474 0.0192387 0.0192296 0.0192199 0.0192095 0.0191985 0.0191872 0.0191762 0.0191643 0.0191533 0.0191419 0.0191301 0.0191179 0.0191053 0.0190923 0.019079 0.0190653 0.0190513 0.0190371 0.0190226 0.0190078 0.0189929 0.0189779 0.0189628 0.0189477 0.0189326 0.0189175 0.0189027 0.018888 0.0188737 0.0188596 0.018846 0.0188329 0.0188203 0.0188083 0.018797 0.0187863 0.0187764 0.0187673 0.018759 0.0187514 0.0187448 0.0187389 0.0187338 0.0187295 0.0187259 0.0187229 0.0187206 0.0187187 0.0187172 0.0187161 0.0187151 0.0187142 0.0187133 0.0187121 0.0187102 0.0187041 0.0186919 0.0186817 0.0186716 0.0186596 0.0186452 0.0186278 0.0186074 0.0185838 0.0185568 0.0185261 0.0184914 0.0184522 0.018408 0.0183582 0.018302 0.0182388 0.0181679 0.0180885 0.0179998 0.017901 0.0177915 0.0176704 0.0175369 0.0173902 0.0172295 0.0170539 0.0168624 0.0166539 0.0164267 0.0161797 0.015914 0.0156489 0.0153406 0.0150905 0.0150777 0.0178025 0 0 0 0 0 0 0 0 0 0 0 0 0 0 0 0 0 0 0 0 0 0 0 0 0 0 0 0 0 0 0 0 0 0 0 0 0 0 0 0 0 0 0 0 0 0 0 0 0 0 0 0 0 0 0 0 0 0 0 0 0 0 0 0 0 0 0 0 0 0 0 0 0 0 0 0 0 0 0 0 0 0 0 0 0 0 0 0 0 0 0 0 0 0 0 0 0 0 0 0 0 0 0 0 0 0 0 0 0 0 0 0 0 0 0 0 0 0 0 0 0 0 0 0 0 0 0 0 0 0 0 0 0 0 0 0 0 0 0 0 0 0 0 0 0 0 0 0 0 0 0 0 0 0 0 0 0 0 0 0 0 0 0 0 0 0 0 0 0 0 0 0 0 0 0 0 0 0 0 0 0 0 0 0 0 0 0 0 0 0 0 0 0 0 0 0 0 0 0 0 0 0 0 0 0 0 0 0 0 0 0 0 0 0 0 0 0 0 0 0 0 0 0 0 0 0 0 0 0 0 0 0 0 0 0 0 0 0 0 0 0 0 0 0 0 0 0 0 0 0 0 0 0 0 0 0 0 0 0 0 0 0 0 0 0 0 
0.02 0.02 0.02 0.02 0.02 0.02 0.02 0.02 0.02 0.02 0.02 0.02 0.02 0.02 0.02 0.02 0.02 0.02 0.02 0.02 0.02 0.02 0.02 0.02 0.02 0.02 0.02 0.02 0.02 0.02 0.02 0.02 0.02 0.02 0.02 0.02 0.02 0.02 0.02 0.02 0.02 0.02 0.02 0.02 0.02 0.02 0.02 0.02 0.02 0.02 0.02 0.02 0.02 0.02 0.02 0.02 0.02 0.02 0.02 0.02 0.02 0.02 0.02 0.02 0.02 0.02 0.02 0.02 0.02 0.02 0.02 0.02 0.02 0.02 0.02 0.02 0.02 0.02 0.02 0.02 0.02 0.02 0.02 0.02 0.02 0.02 0.02 0.02 0.02 0.02 0.02 0.02 0.02 0.02 0.02 0.02 0.02 0.02 0.02 0.02 0.0199999 0.0199999 0.0199999 0.0199999 0.0199999 0.0199999 0.0199999 0.0199999 0.0199999 0.0199999 0.0199999 0.0199998 0.0199998 0.0199998 0.0199998 0.0199998 0.0199997 0.0199997 0.0199997 0.0199997 0.0199996 0.0199996 0.0199996 0.0199995 0.0199995 0.0199994 0.0199994 0.0199993 0.0199992 0.0199992 0.0199991 0.019999 0.0199989 0.0199988 0.0199987 0.0199986 0.0199985 0.0199983 0.0199982 0.019998 0.0199979 0.0199977 0.0199975 0.0199973 0.019997 0.0199968 0.0199965 0.0199962 0.0199958 0.0199954 0.019995 0.0199946 0.0199941 0.0199936 0.019993 0.0199924 0.0199917 0.019991 0.0199902 0.0199893 0.0199883 0.0199873 0.0199861 0.0199849 0.0199835 0.0199821 0.0199805 0.0199788 0.0199769 0.0199749 0.0199727 0.0199704 0.0199678 0.0199651 0.0199622 0.0199591 0.0199558 0.0199522 0.0199484 0.0199443 0.01994 0.0199354 0.0199306 0.0199255 0.0199201 0.0199144 0.0199084 0.0199021 0.0198956 0.0198887 0.0198815 0.0198741 0.0198663 0.0198583 0.01985 0.0198414 0.0198326 0.0198235 0.0198141 0.0198045 0.0197946 0.0197841 0.0197735 0.0197627 0.0197518 0.0197409 0.0197298 0.0197187 0.0197075 0.0196962 0.0196848 0.0196734 0.019662 0.0196506 0.0196392 0.0196279 0.0196166 0.0196053 0.0195942 0.0195832 0.0195723 0.0195615 0.0195509 0.0195404 0.0195301 0.01952 0.01951 0.0195002 0.0194906 0.0194813 0.0194721 0.0194631 0.0194543 0.0194457 0.0194374 0.0194292 0.0194212 0.0194134 0.0194059 0.0193984 0.0193912 0.0193842 0.0193773 0.0193705 0.0193639 0.0193574 0.0193511 0.0193448 0.0193386 0.0193324 0.0193263 0.0193202 0.0193141 0.0193079 0.0193016 0.0192952 0.0192886 0.0192819 0.0192749 0.0192676 0.01926 0.019252 0.0192437 0.0192349 0.0192257 0.0192161 0.0192063 0.0191961 0.0191854 0.0191752 0.0191648 0.019154 0.0191429 0.0191313 0.0191194 0.0191071 0.0190944 0.0190814 0.0190681 0.0190544 0.0190405 0.0190262 0.0190118 0.0189972 0.0189825 0.0189677 0.0189528 0.0189379 0.0189232 0.0189085 0.0188941 0.0188799 0.018866 0.0188526 0.0188396 0.0188271 0.0188151 0.0188038 0.0187932 0.0187833 0.0187741 0.0187657 0.0187581 0.0187512 0.0187452 0.0187399 0.0187354 0.0187316 0.0187284 0.0187257 0.0187235 0.0187217 0.0187202 0.0187189 0.0187176 0.0187163 0.0187146 0.018712 0.0187068 0.0186972 0.018687 0.0186762 0.0186635 0.0186485 0.0186307 0.01861 0.0185862 0.0185589 0.018528 0.0184931 0.0184538 0.0184094 0.0183594 0.0183031 0.0182399 0.0181689 0.0180894 0.0180007 0.017902 0.0177925 0.0176714 0.0175379 0.0173912 0.0172304 0.0170547 0.0168631 0.0166546 0.0164277 0.0161813 0.01592 0.0156628 0.0154173 0.0151662 0.015124 0.0154272 0.01517 0.0144429 0.013895 0.0133407 0.012772 0.0121555 0.0114651 0.0106555 0.00967656 0.00872523 0.00799355 0.00811136 0.00659436 0 0 0 0 0 0 0 0 0 0 0 0 0 0 0 0 0 0 0 0 0 0 0 0 0 0 0 0 0 0 0 0 0 0 0 0 0 0 0 0 0 0 0 0 0 0 0 0 0 0 0 0 0 0 0 0 0 0 0 0 0 0 0 0 0 0 0 0 0 0 0 0 0 0 0 0 0 0 0 0 0 0 0 0 0 0 0 0 0 0 0 0 0 0 0 0 0 0 0 0 0 0 0 0 0 0 0 0 0 0 0 0 0 0 0 0 0 0 0 0 0 0 0 0 0 0 0 0 0 0 0 0 0 0 0 0 0 0 0 0 0 0 0 0 0 0 0 0 0 0 0 0 0 0 0 0 0 0 0 0 0 0 0 0 0 0 0 0 0 0 0 0 0 0 0 0 0 0 0 0 0 0 0 0 0 0 0 0 0 0 0 0 0 0 0 0 0 0 0 0 0 0 0 0 0 0 0 0 0 0 0 0 0 0 0 0 0 0 0 0 0 0 0 0 0 0 0 0 0 0 0 0 0 0 0 0 0 0 0 0 0 0 0 0 0 0 0 0 0 0 0 0 0 
0.02 0.02 0.02 0.02 0.02 0.02 0.02 0.02 0.02 0.02 0.02 0.02 0.02 0.02 0.02 0.02 0.02 0.02 0.02 0.02 0.02 0.02 0.02 0.02 0.02 0.02 0.02 0.02 0.02 0.02 0.02 0.02 0.02 0.02 0.02 0.02 0.02 0.02 0.02 0.02 0.02 0.02 0.02 0.02 0.02 0.02 0.02 0.02 0.02 0.02 0.02 0.02 0.02 0.02 0.02 0.02 0.02 0.02 0.02 0.02 0.02 0.02 0.02 0.02 0.02 0.02 0.02 0.02 0.02 0.02 0.02 0.02 0.02 0.02 0.02 0.02 0.02 0.02 0.02 0.02 0.02 0.02 0.02 0.02 0.02 0.02 0.02 0.02 0.02 0.02 0.02 0.02 0.02 0.02 0.02 0.02 0.02 0.02 0.02 0.02 0.02 0.0199999 0.0199999 0.0199999 0.0199999 0.0199999 0.0199999 0.0199999 0.0199999 0.0199999 0.0199999 0.0199998 0.0199998 0.0199998 0.0199998 0.0199998 0.0199998 0.0199997 0.0199997 0.0199997 0.0199996 0.0199996 0.0199996 0.0199995 0.0199995 0.0199994 0.0199994 0.0199993 0.0199993 0.0199992 0.0199991 0.019999 0.019999 0.0199989 0.0199988 0.0199986 0.0199985 0.0199984 0.0199982 0.0199981 0.0199979 0.0199977 0.0199975 0.0199973 0.0199971 0.0199968 0.0199966 0.0199963 0.0199959 0.0199956 0.0199952 0.0199947 0.0199943 0.0199937 0.0199932 0.0199926 0.0199919 0.0199912 0.0199904 0.0199895 0.0199885 0.0199875 0.0199864 0.0199852 0.0199838 0.0199824 0.0199808 0.0199791 0.0199773 0.0199753 0.0199731 0.0199708 0.0199683 0.0199656 0.0199627 0.0199596 0.0199563 0.0199528 0.019949 0.019945 0.0199407 0.0199362 0.0199314 0.0199263 0.0199209 0.0199152 0.0199093 0.019903 0.0198965 0.0198897 0.0198825 0.0198751 0.0198674 0.0198594 0.0198511 0.0198425 0.0198337 0.0198246 0.0198153 0.0198057 0.0197958 0.0197856 0.019775 0.0197642 0.0197534 0.0197424 0.0197314 0.0197202 0.0197089 0.0196976 0.0196863 0.0196748 0.0196634 0.019652 0.0196406 0.0196292 0.0196179 0.0196066 0.0195954 0.0195844 0.0195734 0.0195626 0.0195519 0.0195413 0.0195309 0.0195207 0.0195106 0.0195008 0.0194911 0.0194816 0.0194723 0.0194632 0.0194543 0.0194456 0.0194371 0.0194288 0.0194206 0.0194127 0.019405 0.0193974 0.01939 0.0193828 0.0193757 0.0193688 0.0193621 0.0193554 0.0193489 0.0193424 0.019336 0.0193297 0.0193234 0.0193171 0.0193107 0.0193043 0.0192978 0.0192912 0.0192844 0.0192774 0.0192702 0.0192627 0.019255 0.019247 0.0192387 0.0192301 0.0192213 0.0192123 0.0192029 0.0191937 0.0191844 0.0191748 0.0191649 0.0191546 0.0191439 0.0191329 0.0191216 0.0191098 0.0190978 0.0190854 0.0190726 0.0190596 0.0190463 0.0190327 0.0190189 0.0190049 0.0189908 0.0189766 0.0189623 0.0189481 0.0189339 0.0189198 0.0189058 0.0188922 0.0188788 0.0188657 0.0188531 0.018841 0.0188294 0.0188184 0.018808 0.0187983 0.0187893 0.018781 0.0187735 0.0187667 0.0187607 0.0187553 0.0187507 0.0187468 0.0187434 0.0187406 0.0187382 0.0187362 0.0187344 0.0187328 0.0187312 0.0187295 0.0187275 0.0187244 0.0187191 0.0187107 0.0187001 0.0186882 0.0186745 0.0186586 0.0186402 0.0186189 0.0185946 0.018567 0.0185357 0.0185005 0.0184607 0.018416 0.0183656 0.018309 0.0182453 0.018174 0.0180943 0.0180053 0.0179063 0.0177964 0.017675 0.0175411 0.0173939 0.0172326 0.0170564 0.0168642 0.0166553 0.0164294 0.0161866 0.0159349 0.0157019 0.0155017 0.0152956 0.0152179 0.0151364 0.0148943 0.0143611 0.0138335 0.0132917 0.0127058 0.012068 0.0113489 0.0105429 0.00964891 0.0087541 0.00794955 0.00733275 0.0063267 0.00516145 0.00391919 0.00257915 0.00196907 0 0 0 0 0 0 0 0 0 0 0 0 0 0 0 0 0 0 0 0 0 0 0 0 0 0 0 0 0 0 0 0 0 0 0 0 0 0 0 0 0 0 0 0 0 0 0 0 0 0 0 0 0 0 0 0 0 0 0 0 0 0 0 0 0 0 0 0 0 0 0 0 0 0 0 0 0 0 0 0 0 0 0 0 0 0 0 0 0 0 0 0 0 0 0 0 0 0 0 0 0 0 0 0 0 0 0 0 0 0 0 0 0 0 0 0 0 0 0 0 0 0 0 0 0 0 0 0 0 0 0 0 0 0 0 0 0 0 0 0 0 0 0 0 0 0 0 0 0 0 0 0 0 0 0 0 0 0 0 0 0 0 0 0 0 0 0 0 0 0 0 0 0 0 0 0 0 0 0 0 0 0 0 0 0 0 0 0 0 0 0 0 0 0 0 0 0 0 0 0 0 0 0 0 0 0 0 0 0 0 0 0 0 0 0 0 0 0 0 0 0 0 0 0 0 0 0 0 0 0 0 0 0 0 0 0 0 0 0 0 0 0 0 0 0 0 0 0 2.1684e-19 
0.02 0.02 0.02 0.02 0.02 0.02 0.02 0.02 0.02 0.02 0.02 0.02 0.02 0.02 0.02 0.02 0.02 0.02 0.02 0.02 0.02 0.02 0.02 0.02 0.02 0.02 0.02 0.02 0.02 0.02 0.02 0.02 0.02 0.02 0.02 0.02 0.02 0.02 0.02 0.02 0.02 0.02 0.02 0.02 0.02 0.02 0.02 0.02 0.02 0.02 0.02 0.02 0.02 0.02 0.02 0.02 0.02 0.02 0.02 0.02 0.02 0.02 0.02 0.02 0.02 0.02 0.02 0.02 0.02 0.02 0.02 0.02 0.02 0.02 0.02 0.02 0.02 0.02 0.02 0.02 0.02 0.02 0.02 0.02 0.02 0.02 0.02 0.02 0.02 0.02 0.02 0.02 0.02 0.02 0.02 0.02 0.02 0.02 0.02 0.02 0.02 0.0199999 0.0199999 0.0199999 0.0199999 0.0199999 0.0199999 0.0199999 0.0199999 0.0199999 0.0199999 0.0199999 0.0199998 0.0199998 0.0199998 0.0199998 0.0199998 0.0199997 0.0199997 0.0199997 0.0199997 0.0199996 0.0199996 0.0199995 0.0199995 0.0199995 0.0199994 0.0199993 0.0199993 0.0199992 0.0199992 0.0199991 0.019999 0.0199989 0.0199988 0.0199987 0.0199986 0.0199985 0.0199983 0.0199982 0.019998 0.0199978 0.0199976 0.0199974 0.0199972 0.0199969 0.0199967 0.0199964 0.0199961 0.0199957 0.0199953 0.0199949 0.0199944 0.0199939 0.0199934 0.0199928 0.0199921 0.0199914 0.0199906 0.0199898 0.0199889 0.0199878 0.0199867 0.0199855 0.0199842 0.0199828 0.0199813 0.0199796 0.0199778 0.0199758 0.0199737 0.0199714 0.0199689 0.0199663 0.0199634 0.0199604 0.0199571 0.0199536 0.0199499 0.0199459 0.0199416 0.0199371 0.0199324 0.0199273 0.019922 0.0199164 0.0199105 0.0199043 0.0198978 0.019891 0.0198839 0.0198765 0.0198689 0.0198609 0.0198527 0.0198441 0.0198354 0.0198263 0.019817 0.0198075 0.0197976 0.0197875 0.019777 0.0197664 0.0197555 0.0197446 0.0197335 0.0197223 0.0197111 0.0196998 0.0196884 0.019677 0.0196655 0.0196541 0.0196426 0.0196312 0.0196199 0.0196086 0.0195974 0.0195862 0.0195752 0.0195643 0.0195535 0.0195429 0.0195324 0.0195221 0.0195119 0.0195019 0.0194921 0.0194825 0.019473 0.0194638 0.0194547 0.0194458 0.0194372 0.0194287 0.0194204 0.0194122 0.0194043 0.0193965 0.019389 0.0193815 0.0193742 0.0193671 0.0193601 0.0193532 0.0193464 0.0193398 0.0193331 0.0193265 0.01932 0.0193134 0.0193068 0.0193002 0.0192934 0.0192866 0.0192796 0.0192725 0.0192652 0.0192578 0.0192502 0.0192424 0.0192345 0.0192265 0.0192183 0.0192102 0.0192019 0.0191935 0.0191848 0.0191758 0.0191665 0.0191569 0.019147 0.0191368 0.0191262 0.0191153 0.019104 0.0190925 0.0190806 0.0190685 0.0190561 0.0190434 0.0190305 0.0190174 0.0190042 0.0189908 0.0189774 0.018964 0.0189505 0.0189372 0.018924 0.0189111 0.0188983 0.0188859 0.0188739 0.0188622 0.0188511 0.0188405 0.0188305 0.0188211 0.0188123 0.0188042 0.0187968 0.0187901 0.0187841 0.0187788 0.0187741 0.01877 0.0187664 0.0187634 0.0187607 0.0187584 0.0187563 0.0187543 0.0187523 0.0187502 0.0187475 0.0187438 0.018738 0.0187296 0.0187187 0.0187058 0.0186911 0.0186742 0.0186549 0.0186329 0.0186079 0.0185797 0.0185479 0.0185121 0.0184718 0.0184266 0.0183757 0.0183186 0.0182545 0.0181827 0.0181025 0.0180131 0.0179136 0.0178033 0.0176813 0.0175469 0.017399 0.017237 0.0170601 0.0168674 0.0166588 0.0164358 0.0162012 0.0159636 0.0157536 0.0155851 0.0154252 0.0152027 0.0150558 0.0147189 0.0142746 0.0137662 0.0132363 0.0126343 0.0119779 0.0112437 0.010447 0.00959774 0.0087309 0.00791856 0.0070819 0.00605482 0.00492909 0.0037109 0.0024582 0.00131849 -9.57451e-05 -0.00157426 0 0 0 0 0 0 0 0 0 0 0 0 0 0 0 0 0 0 0 0 0 0 0 0 0 0 0 0 0 0 0 0 0 0 0 0 0 0 0 0 0 0 0 0 0 0 0 0 0 0 0 0 0 0 0 0 0 0 0 0 0 0 0 0 0 0 0 0 0 0 0 0 0 0 0 0 0 0 0 0 0 0 0 0 0 0 0 0 0 0 0 0 0 0 0 0 0 0 0 0 0 0 0 0 0 0 0 0 0 0 0 0 0 0 0 0 0 0 0 0 0 0 0 0 0 0 0 0 0 0 0 0 0 0 0 0 0 0 0 0 0 0 0 0 0 0 0 0 0 0 0 0 0 0 0 0 0 0 0 0 0 0 0 0 0 0 0 0 0 0 0 0 0 0 0 0 0 0 0 0 0 0 0 0 0 0 0 0 0 0 0 0 0 0 0 0 0 0 0 0 0 0 0 0 0 0 0 0 0 0 0 0 0 0 0 0 0 0 0 0 0 0 0 0 0 0 0 0 0 0 0 0 0 0 0 0 0 0 0 0 0 0 0 0 0 0 3.25261e-19 
0.02 0.02 0.02 0.02 0.02 0.02 0.02 0.02 0.02 0.02 0.02 0.02 0.02 0.02 0.02 0.02 0.02 0.02 0.02 0.02 0.02 0.02 0.02 0.02 0.02 0.02 0.02 0.02 0.02 0.02 0.02 0.02 0.02 0.02 0.02 0.02 0.02 0.02 0.02 0.02 0.02 0.02 0.02 0.02 0.02 0.02 0.02 0.02 0.02 0.02 0.02 0.02 0.02 0.02 0.02 0.02 0.02 0.02 0.02 0.02 0.02 0.02 0.02 0.02 0.02 0.02 0.02 0.02 0.02 0.02 0.02 0.02 0.02 0.02 0.02 0.02 0.02 0.02 0.02 0.02 0.02 0.02 0.02 0.02 0.02 0.02 0.02 0.02 0.02 0.02 0.02 0.02 0.02 0.02 0.02 0.02 0.02 0.02 0.02 0.02 0.02 0.0199999 0.0199999 0.0199999 0.0199999 0.0199999 0.0199999 0.0199999 0.0199999 0.0199999 0.0199999 0.0199999 0.0199998 0.0199998 0.0199998 0.0199998 0.0199998 0.0199998 0.0199997 0.0199997 0.0199997 0.0199996 0.0199996 0.0199996 0.0199995 0.0199995 0.0199994 0.0199994 0.0199993 0.0199993 0.0199992 0.0199991 0.019999 0.019999 0.0199989 0.0199988 0.0199987 0.0199985 0.0199984 0.0199983 0.0199981 0.0199979 0.0199978 0.0199976 0.0199973 0.0199971 0.0199968 0.0199966 0.0199962 0.0199959 0.0199955 0.0199951 0.0199947 0.0199942 0.0199937 0.0199931 0.0199925 0.0199918 0.019991 0.0199902 0.0199893 0.0199883 0.0199872 0.019986 0.0199848 0.0199834 0.0199819 0.0199802 0.0199784 0.0199765 0.0199744 0.0199722 0.0199698 0.0199672 0.0199644 0.0199613 0.0199581 0.0199547 0.019951 0.0199471 0.0199429 0.0199384 0.0199337 0.0199287 0.0199235 0.0199179 0.0199121 0.0199059 0.0198995 0.0198928 0.0198857 0.0198784 0.0198708 0.0198629 0.0198547 0.0198463 0.0198375 0.0198285 0.0198193 0.0198098 0.0198 0.01979 0.0197797 0.0197691 0.0197583 0.0197474 0.0197363 0.0197252 0.0197139 0.0197026 0.0196913 0.0196798 0.0196684 0.0196569 0.0196455 0.019634 0.0196226 0.0196113 0.0196 0.0195888 0.0195777 0.0195668 0.0195559 0.0195452 0.0195346 0.0195241 0.0195138 0.0195037 0.0194937 0.019484 0.0194744 0.0194649 0.0194557 0.0194466 0.0194377 0.019429 0.0194205 0.0194122 0.019404 0.019396 0.0193882 0.0193805 0.0193729 0.0193655 0.0193583 0.0193511 0.019344 0.0193371 0.0193301 0.0193233 0.0193164 0.0193096 0.0193028 0.0192959 0.019289 0.0192821 0.0192751 0.019268 0.0192609 0.0192538 0.0192466 0.0192394 0.0192321 0.0192249 0.0192176 0.0192102 0.0192026 0.0191949 0.0191869 0.0191787 0.0191703 0.0191616 0.0191526 0.0191433 0.0191337 0.0191239 0.0191137 0.0191032 0.0190925 0.0190815 0.0190702 0.0190586 0.0190468 0.0190349 0.0190227 0.0190105 0.0189981 0.0189857 0.0189733 0.0189609 0.0189486 0.0189365 0.0189246 0.0189129 0.0189016 0.0188906 0.01888 0.0188699 0.0188603 0.0188513 0.0188428 0.0188349 0.0188277 0.018821 0.018815 0.0188096 0.0188048 0.0188005 0.0187966 0.0187933 0.0187902 0.0187875 0.0187849 0.0187824 0.0187799 0.0187771 0.0187736 0.018769 0.0187625 0.0187534 0.0187419 0.0187283 0.0187125 0.0186946 0.0186743 0.0186514 0.0186256 0.0185966 0.0185641 0.0185276 0.0184867 0.0184408 0.0183894 0.0183316 0.018267 0.0181947 0.0181139 0.0180239 0.0179239 0.017813 0.0176905 0.0175553 0.0174067 0.0172439 0.0170664 0.016874 0.0166673 0.0164497 0.0162269 0.0160068 0.0158069 0.0156433 0.0154968 0.0153062 0.0150123 0.0146311 0.0141979 0.0137033 0.0131626 0.0125497 0.0118782 0.0111389 0.010349 0.00952342 0.00866026 0.00778824 0.00684075 0.00578278 0.00463327 0.00341771 0.00217043 0.000903354 -0.000423227 -0.00192495 -0.00375426 -0.00618 0 0 0 0 0 0 0 0 0 0 0 0 0 0 0 0 0 0 0 0 0 0 0 0 0 0 0 0 0 0 0 0 0 0 0 0 0 0 0 0 0 0 0 0 0 0 0 0 0 0 0 0 0 0 0 0 0 0 0 0 0 0 0 0 0 0 0 0 0 0 0 0 0 0 0 0 0 0 0 0 0 0 0 0 0 0 0 0 0 0 0 0 0 0 0 0 0 0 0 0 0 0 0 0 0 0 0 0 0 0 0 0 0 0 0 0 0 0 0 0 0 0 0 0 0 0 0 0 0 0 0 0 0 0 0 0 0 0 0 0 0 0 0 0 0 0 0 0 0 0 0 0 0 0 0 0 0 0 0 0 0 0 0 0 0 0 0 0 0 0 0 0 0 0 0 0 0 0 0 0 0 0 0 0 0 0 0 0 0 0 0 0 0 0 0 0 0 0 0 0 0 0 0 0 0 0 0 0 0 0 0 0 0 0 0 0 0 0 0 0 0 0 0 0 0 0 0 0 0 0 0 0 0 0 0 0 0 0 0 0 0 0 0 -0.00512392 -8.67362e-19 
0.02 0.02 0.02 0.02 0.02 0.02 0.02 0.02 0.02 0.02 0.02 0.02 0.02 0.02 0.02 0.02 0.02 0.02 0.02 0.02 0.02 0.02 0.02 0.02 0.02 0.02 0.02 0.02 0.02 0.02 0.02 0.02 0.02 0.02 0.02 0.02 0.02 0.02 0.02 0.02 0.02 0.02 0.02 0.02 0.02 0.02 0.02 0.02 0.02 0.02 0.02 0.02 0.02 0.02 0.02 0.02 0.02 0.02 0.02 0.02 0.02 0.02 0.02 0.02 0.02 0.02 0.02 0.02 0.02 0.02 0.02 0.02 0.02 0.02 0.02 0.02 0.02 0.02 0.02 0.02 0.02 0.02 0.02 0.02 0.02 0.02 0.02 0.02 0.02 0.02 0.02 0.02 0.02 0.02 0.02 0.02 0.02 0.02 0.02 0.02 0.02 0.02 0.0199999 0.0199999 0.0199999 0.0199999 0.0199999 0.0199999 0.0199999 0.0199999 0.0199999 0.0199999 0.0199999 0.0199998 0.0199998 0.0199998 0.0199998 0.0199998 0.0199997 0.0199997 0.0199997 0.0199997 0.0199996 0.0199996 0.0199996 0.0199995 0.0199995 0.0199994 0.0199994 0.0199993 0.0199993 0.0199992 0.0199991 0.019999 0.0199989 0.0199989 0.0199987 0.0199986 0.0199985 0.0199984 0.0199982 0.0199981 0.0199979 0.0199977 0.0199975 0.0199973 0.019997 0.0199968 0.0199965 0.0199962 0.0199958 0.0199954 0.019995 0.0199945 0.019994 0.0199935 0.0199929 0.0199922 0.0199915 0.0199907 0.0199898 0.0199888 0.0199878 0.0199866 0.0199854 0.0199841 0.0199826 0.019981 0.0199793 0.0199774 0.0199753 0.0199732 0.0199708 0.0199682 0.0199655 0.0199625 0.0199594 0.019956 0.0199523 0.0199485 0.0199444 0.01994 0.0199353 0.0199304 0.0199252 0.0199198 0.019914 0.0199079 0.0199016 0.0198949 0.019888 0.0198807 0.0198732 0.0198654 0.0198573 0.0198489 0.0198402 0.0198313 0.0198221 0.0198127 0.019803 0.0197931 0.0197829 0.0197724 0.0197617 0.0197509 0.0197399 0.0197287 0.0197175 0.0197062 0.0196949 0.0196835 0.019672 0.0196605 0.0196491 0.0196376 0.0196262 0.0196148 0.0196035 0.0195922 0.0195811 0.01957 0.019559 0.0195482 0.0195375 0.0195269 0.0195165 0.0195062 0.0194961 0.0194861 0.0194763 0.0194667 0.0194573 0.019448 0.0194389 0.0194299 0.0194212 0.0194126 0.0194041 0.0193958 0.0193877 0.0193797 0.0193719 0.0193642 0.0193566 0.0193491 0.0193418 0.0193345 0.0193273 0.0193202 0.0193131 0.019306 0.0192991 0.0192921 0.0192852 0.0192783 0.0192715 0.0192647 0.019258 0.0192514 0.0192448 0.0192382 0.0192317 0.0192252 0.0192186 0.0192119 0.0192051 0.0191982 0.0191911 0.0191839 0.0191764 0.0191688 0.0191609 0.0191528 0.0191444 0.0191357 0.0191268 0.0191177 0.0191082 0.0190985 0.0190885 0.0190783 0.0190679 0.0190572 0.0190464 0.0190354 0.0190243 0.0190131 0.0190018 0.0189906 0.0189794 0.0189682 0.0189573 0.0189465 0.0189359 0.0189257 0.0189158 0.0189062 0.0188971 0.0188884 0.0188803 0.0188726 0.0188655 0.0188589 0.0188528 0.0188473 0.0188423 0.0188377 0.0188335 0.0188297 0.0188262 0.0188229 0.0188198 0.0188166 0.0188133 0.0188097 0.0188052 0.0187995 0.0187919 0.018782 0.0187697 0.0187551 0.0187383 0.0187193 0.0186979 0.018674 0.0186473 0.0186174 0.0185841 0.0185468 0.0185051 0.0184585 0.0184063 0.0183479 0.0182826 0.0182097 0.0181283 0.0180377 0.017937 0.0178255 0.0177022 0.0175663 0.017417 0.0172536 0.0170761 0.0168851 0.0166826 0.0164727 0.0162624 0.0160581 0.0158635 0.0156814 0.0154869 0.0152571 0.0149516 0.0145732 0.0141353 0.0136354 0.0130778 0.012456 0.0117733 0.0110324 0.0102421 0.00941464 0.00853746 0.00759138 0.00658498 0.00547392 0.00428224 0.00303393 0.00175024 0.000387446 -0.000990014 -0.00243791 -0.00405598 -0.00601458 -0.00874844 -0.0124751 0 0 0 0 0 0 0 0 0 0 0 0 0 0 0 0 0 0 0 0 0 0 0 0 0 0 0 0 0 0 0 0 0 0 0 0 0 0 0 0 0 0 0 0 0 0 0 0 0 0 0 0 0 0 0 0 0 0 0 0 0 0 0 0 0 0 0 0 0 0 0 0 0 0 0 0 0 0 0 0 0 0 0 0 0 0 0 0 0 0 0 0 0 0 0 0 0 0 0 0 0 0 0 0 0 0 0 0 0 0 0 0 0 0 0 0 0 0 0 0 0 0 0 0 0 0 0 0 0 0 0 0 0 0 0 0 0 0 0 0 0 0 0 0 0 0 0 0 0 0 0 0 0 0 0 0 0 0 0 0 0 0 0 0 0 0 0 0 0 0 0 0 0 0 0 0 0 0 0 0 0 0 0 0 0 0 0 0 0 0 0 0 0 0 0 0 0 0 0 0 0 0 0 0 0 0 0 0 0 0 0 0 0 0 0 0 0 0 0 0 0 0 0 0 0 0 0 0 0 0 0 0 0 0 0 0 0 0 0 0 -0.0175329 -0.00902921 6.50521e-19 
0.02 0.02 0.02 0.02 0.02 0.02 0.02 0.02 0.02 0.02 0.02 0.02 0.02 0.02 0.02 0.02 0.02 0.02 0.02 0.02 0.02 0.02 0.02 0.02 0.02 0.02 0.02 0.02 0.02 0.02 0.02 0.02 0.02 0.02 0.02 0.02 0.02 0.02 0.02 0.02 0.02 0.02 0.02 0.02 0.02 0.02 0.02 0.02 0.02 0.02 0.02 0.02 0.02 0.02 0.02 0.02 0.02 0.02 0.02 0.02 0.02 0.02 0.02 0.02 0.02 0.02 0.02 0.02 0.02 0.02 0.02 0.02 0.02 0.02 0.02 0.02 0.02 0.02 0.02 0.02 0.02 0.02 0.02 0.02 0.02 0.02 0.02 0.02 0.02 0.02 0.02 0.02 0.02 0.02 0.02 0.02 0.02 0.02 0.02 0.02 0.02 0.02 0.02 0.0199999 0.0199999 0.0199999 0.0199999 0.0199999 0.0199999 0.0199999 0.0199999 0.0199999 0.0199999 0.0199999 0.0199998 0.0199998 0.0199998 0.0199998 0.0199998 0.0199997 0.0199997 0.0199997 0.0199997 0.0199996 0.0199996 0.0199996 0.0199995 0.0199995 0.0199994 0.0199994 0.0199993 0.0199993 0.0199992 0.0199991 0.019999 0.019999 0.0199989 0.0199988 0.0199986 0.0199985 0.0199984 0.0199982 0.0199981 0.0199979 0.0199977 0.0199975 0.0199973 0.019997 0.0199968 0.0199964 0.0199961 0.0199958 0.0199954 0.0199949 0.0199944 0.0199939 0.0199933 0.0199927 0.019992 0.0199912 0.0199904 0.0199895 0.0199885 0.0199874 0.0199862 0.0199849 0.0199834 0.0199819 0.0199802 0.0199784 0.0199764 0.0199743 0.019972 0.0199695 0.0199668 0.0199639 0.0199608 0.0199575 0.019954 0.0199502 0.0199461 0.0199418 0.0199373 0.0199324 0.0199273 0.0199219 0.0199163 0.0199103 0.019904 0.0198975 0.0198906 0.0198835 0.019876 0.0198683 0.0198603 0.019852 0.0198434 0.0198346 0.0198255 0.0198162 0.0198066 0.0197967 0.0197866 0.0197763 0.0197657 0.019755 0.019744 0.019733 0.0197218 0.0197106 0.0196992 0.0196878 0.0196764 0.0196649 0.0196535 0.019642 0.0196305 0.0196191 0.0196077 0.0195964 0.0195852 0.019574 0.019563 0.019552 0.0195412 0.0195305 0.0195199 0.0195094 0.0194991 0.019489 0.019479 0.0194692 0.0194595 0.0194499 0.0194406 0.0194314 0.0194223 0.0194134 0.0194047 0.0193961 0.0193877 0.0193794 0.0193712 0.0193632 0.0193553 0.0193475 0.0193399 0.0193323 0.0193249 0.0193175 0.0193103 0.0193032 0.0192962 0.0192893 0.0192826 0.0192759 0.0192694 0.0192631 0.0192569 0.0192507 0.0192448 0.0192388 0.019233 0.0192271 0.0192213 0.0192154 0.0192095 0.0192036 0.0191975 0.0191913 0.019185 0.0191786 0.0191719 0.0191651 0.0191581 0.0191508 0.0191434 0.0191356 0.0191277 0.0191195 0.019111 0.0191023 0.0190933 0.0190842 0.0190748 0.0190652 0.0190555 0.0190457 0.0190357 0.0190258 0.0190157 0.0190058 0.0189958 0.018986 0.0189764 0.0189669 0.0189577 0.0189488 0.0189402 0.018932 0.0189242 0.0189167 0.0189097 0.0189032 0.018897 0.0188913 0.018886 0.0188811 0.0188765 0.0188722 0.0188681 0.0188641 0.0188603 0.0188563 0.0188521 0.0188474 0.0188418 0.0188349 0.018826 0.018815 0.0188016 0.0187859 0.018768 0.0187479 0.0187254 0.0187004 0.0186727 0.0186418 0.0186075 0.0185694 0.0185268 0.0184794 0.0184264 0.0183673 0.0183012 0.0182275 0.0181455 0.0180542 0.0179528 0.0178405 0.0177165 0.0175798 0.0174299 0.0172664 0.0170897 0.0169016 0.016705 0.0165042 0.016305 0.0161107 0.0159181 0.0157172 0.0154979 0.0152308 0.0149057 0.014518 0.0140701 0.0135608 0.0129905 0.0123591 0.0116673 0.0109211 0.0101217 0.00927463 0.00836514 0.00738234 0.00630495 0.00513888 0.00389571 0.00258935 0.00122689 -0.000199731 -0.00166951 -0.00314006 -0.00478271 -0.00654108 -0.00861474 -0.01191 -0.0147217 0 0 0 0 0 0 0 0 0 0 0 0 0 0 0 0 0 0 0 0 0 0 0 0 0 0 0 0 0 0 0 0 0 0 0 0 0 0 0 0 0 0 0 0 0 0 0 0 0 0 0 0 0 0 0 0 0 0 0 0 0 0 0 0 0 0 0 0 0 0 0 0 0 0 0 0 0 0 0 0 0 0 0 0 0 0 0 0 0 0 0 0 0 0 0 0 0 0 0 0 0 0 0 0 0 0 0 0 0 0 0 0 0 0 0 0 0 0 0 0 0 0 0 0 0 0 0 0 0 0 0 0 0 0 0 0 0 0 0 0 0 0 0 0 0 0 0 0 0 0 0 0 0 0 0 0 0 0 0 0 0 0 0 0 0 0 0 0 0 0 0 0 0 0 0 0 0 0 0 0 0 0 0 0 0 0 0 0 0 0 0 0 0 0 0 0 0 0 0 0 0 0 0 0 0 0 0 0 0 0 0 0 0 0 0 0 0 0 0 0 0 0 0 0 0 0 0 0 0 0 0 0 0 0 0 0 0 -0.0361576 -0.0301315 -0.0216736 -0.0118765 -3.03577e-18 