# vtk DataFile Version 2.0
iteration 1890
ASCII

DATASET STRUCTURED_POINTS
DIMENSIONS 621 64 1
ORIGIN 0 0 0
SPACING 0.00161031 0.00161031 0.00161031

POINT_DATA 39744
SCALARS P float 1
LOOKUP_TABLE default
0 0 0 0 0 0 0 0 0 0 0 0 0 0 0 0 0 0 0 0 0 0 0 0 0 0 0 0 0 0 0 0 0 0 0 0 0 0 0 0 0 0 0 0 0 0 0 0 0 0 0 0 0 0 0 0 0 0 0 0 0 0 0 0 0 0 0 0 0 0 0 0 0 0 0 0 0 0 0 0 0 0 0 0 0 0 0 0 0 0 0 0 0 0 0 0 0 0 0 0 0 0 0 0 0 0 0 0 0 0 0 0 0 0 0 0 0 0 0 0 0 0 0 0 0 0 0 0 0 0 0 0 0 0 0 0 0 0 0 0 0 0 0 0 0 0 0 0 0 0 0 0 0 0 0 0 0 0 0 0 0 0 0 0 0 0 0 0 0 0 0 0 0 0 0 0 0 0 0 0 0 0 0 0 0 0 0 0 0 0 0 0 0 0 0 0 0 0 0 0 0 0 0 0 0 0 0 0 0 0 0 0 0 0 0 0 0 0 0 0 0 0 0 0 0 0 0 0 0 0 0 0 0 0 0 0 0 0 0 0 0 0 0 0 0 0 0 0 0 0 0 0 0 0 0 0 0 0 0 0 0 0 0 0 0 0 0 0 0 0 0 0 0 0 0 0 0 0 0 0 0 0 0 0 0 0 0 0 0 0 0 0 0 0 0 0 0 0 0 0 0 0 0 0 0 0 0 0 0 0 0 0 0 0 0 0 0 0 0 0 0 0 0 0 0 0 0 0 0 0 0 0 0 0 0 0 0 0 0 0 0 0 0 0 0 0 0 0 0 0 0 0 0 0 0 0 0 0 0 0 0 0 0 0 0 0 0 0 0 0 0 0 0 0 0 0 0 0 0 0 0 0 0 0 0 0 0 0 0 0 0 0 0 0 0 0 0 0 0 0 0 0 0 0 0 0 0 0 0 0 0 0 0 0 0 0 0 0 0 0 0 0 0 0 0 0 0 0 0 0 0 0 0 0 0 0 0 0 0 0 0 0 0 0 0 0 0 0 0 0 0 0 0 0 0 0 0 0 0 0 0 0 0 0 0 0 0 0 0 0 0 0 0 0 0 0 0 0 0 0 0 0 0 0 0 0 0 0 0 0 0 0 0 0 0 0 0 0 0 0 0 0 0 0 0 0 0 0 0 0 0 0 0 0 0 0 0 0 0 0 0 0 0 0 0 0 0 0 0 0 0 0 0 0 0 0 0 0 0 0 0 0 0 0 0 0 0 0 0 0 0 0 0 0 0 0 0 0 0 0 0 0 0 0 0 0 0 0 0 0 0 0 0 0 0 0 0 0 0 0 0 0 0 0 0 0 0 0 0 0 0 0 0 0 0 0 0 0 0 0 0 0 0 0 0 0 0 0 0 0 0 0 0 0 0 0 0 0 0 0 0 
0.02 0.02 0.02 0.02 0.02 0.02 0.02 0.02 0.02 0.02 0.02 0.02 0.02 0.02 0.02 0.02 0.02 0.02 0.02 0.02 0.02 0.02 0.02 0.02 0.02 0.02 0.02 0.02 0.02 0.02 0.02 0.02 0.02 0.02 0.02 0.02 0.02 0.02 0.02 0.02 0.02 0.02 0.02 0.02 0.02 0.02 0.02 0.02 0.02 0.02 0.02 0.02 0.02 0.02 0.02 0.02 0.02 0.02 0.02 0.02 0.02 0.02 0.02 0.02 0.02 0.02 0.02 0.02 0.02 0.02 0.02 0.02 0.02 0.02 0.02 0.02 0.02 0.02 0.02 0.02 0.02 0.02 0.02 0.02 0.02 0.02 0.02 0.02 0.02 0.02 0.02 0.02 0.02 0.02 0.02 0.02 0.02 0.02 0.02 0.02 0.02 0.02 0.02 0.02 0.02 0.02 0.02 0.02 0.02 0.02 0.02 0.02 0.02 0.02 0.02 0.02 0.02 0.02 0.02 0.02 0.02 0.02 0.02 0.02 0.02 0.02 0.02 0.02 0.02 0.02 0.02 0.02 0.02 0.02 0.02 0.02 0.02 0.02 0.02 0.02 0.02 0.02 0.02 0.02 0.02 0.02 0.02 0.02 0.02 0.02 0.02 0.02 0.02 0.0199999 0.0199999 0.0199999 0.0199999 0.0199999 0.0199999 0.0199999 0.0199999 0.0199999 0.0199999 0.0199999 0.0199999 0.0199999 0.0199999 0.0199999 0.0199999 0.0199999 0.0199999 0.0199999 0.02 0.02 0.02 0.02 0.02 0.02 0.02 0.02 0.0200001 0.0200001 0.0200001 0.0200001 0.0200002 0.0200002 0.0200003 0.0200003 0.0200003 0.0200004 0.0200005 0.0200005 0.0200006 0.0200006 0.0200007 0.0200008 0.0200009 0.020001 0.0200011 0.0200011 0.0200012 0.0200013 0.0200014 0.0200015 0.0200017 0.0200018 0.0200019 0.020002 0.0200021 0.0200022 0.0200023 0.0200024 0.0200024 0.0200025 0.0200026 0.0200026 0.0200026 0.0200026 0.0200026 0.0200025 0.0200025 0.0200024 0.0200022 0.020002 0.0200018 0.0200015 0.0200011 0.0200007 0.0200003 0.0199997 0.0199991 0.0199984 0.0199976 0.0199967 0.0199957 0.0199947 0.0199934 0.0199921 0.0199907 0.0199891 0.0199873 0.0199855 0.0199834 0.0199812 0.0199789 0.0199763 0.0199736 0.0199707 0.0199676 0.0199643 0.0199607 0.019957 0.019953 0.0199487 0.0199443 0.0199396 0.0199346 0.0199293 0.0199238 0.019918 0.0199119 0.0199056 0.0198989 0.0198919 0.0198847 0.0198771 0.0198692 0.019861 0.0198524 0.0198436 0.0198344 0.0198248 0.019815 0.0198047 0.0197942 0.0197833 0.019772 0.0197604 0.0197485 0.0197362 0.0197235 0.0197105 0.0196972 0.0196835 0.0196695 0.0196551 0.0196405 0.0196255 0.0196102 0.0195945 0.0195786 0.0195624 0.0195459 0.0195292 0.0195122 0.0194949 0.0194775 0.0194598 0.0194419 0.0194239 0.0194057 0.0193873 0.0193688 0.0193503 0.0193316 0.0193129 0.0192941 0.0192754 0.0192566 0.0192379 0.0192193 0.0192007 0.0191823 0.019164 0.0191459 0.0191279 0.0191102 0.0190927 0.0190754 0.0190585 0.0190419 0.0190256 0.0190097 0.0189942 0.018979 0.0189643 0.0189501 0.0189363 0.0189231 0.0189103 0.0188981 0.0188864 0.0188752 0.0188647 0.0188547 0.0188454 0.0188366 0.0188285 0.018821 0.0188141 0.0188079 0.0188023 0.0187974 0.0187932 0.0187896 0.0187867 0.0187845 0.0187829 0.0187819 0.0187817 0.0187821 0.0187831 0.0187848 0.0187871 0.0187901 0.0187936 0.0187978 0.0188026 0.018808 0.0188139 0.0188205 0.0188275 0.0188352 0.0188433 0.0188519 0.0188611 0.0188707 0.0188807 0.0188912 0.0189022 0.0189135 0.0189252 0.0189373 0.0189498 0.0189626 0.0189758 0.0189892 0.019003 0.019017 0.0190313 0.0190459 0.0190608 0.0190759 0.0190912 0.0191068 0.0191226 0.0191387 0.0191549 0.0191713 0.0191879 0.0192046 0.0192214 0.0192383 0.019255 0.0192716 0.0192888 0.019306 0.0193249 0.0193443 0.0193639 0.0193838 0.019404 0.0194243 0.0194448 0.0194654 0.019486 0.0195066 0.0195269 0.0195469 0.0195664 0.0195852 0.0196031 0.0196199 0.0196354 0.0196493 0.0196612 0.019671 0.0196783 0.0196829 0.0196846 0.0196829 0.0196778 0.019669 0.0196564 0.0196397 0.0196191 0.0195942 0.0195652 0.019532 0.0194945 0.0194525 0.0194059 0.0193543 0.0192923 0.0192255 0.0191489 0.0190644 0.0189709 0.018866 0.0187493 0.0186191 0.0184727 0.0183086 0.0181236 0.0179139 0.0176759 0.0174047 0.0170944 0.0167387 0.0163312 0.015865 0.0153327 0.0147263 0.0140372 0.0132447 0.0123282 0.0112956 0.010254 0.00929209 0.00826523 0.00852468 0 0 0 0 0 0 0 0 0 0 0 0 0 0 0 0 0 0 0 0 0 0 0 0 0 0 0 0 0 0 0 0 0 0 0 0 0 0 0 0 0 0 0 0 0 0 0 0 0 0 0 0 0 0 0 0 0 0 0 0 0 0 0 0 0 0 0 0 0 0 0 0 0 0 0 0 0 0 0 0 0 0 0 0 0 0 0 0 0 0 0 0 0 0 0 0 0 0 0 0 0 0 0 0 0 0 0 0 0 0 0 0 0 0 0 0 0 0 0 0 0 0 0 0 0 0 0 0 0 0 0 0 0 0 0 0 0 0 0 0 0 0 0 0 0 0 0 0 0 0 0 0 0 0 0 0 0 0 0 0 
0.02 0.02 0.02 0.02 0.02 0.02 0.02 0.02 0.02 0.02 0.02 0.02 0.02 0.02 0.02 0.02 0.02 0.02 0.02 0.02 0.02 0.02 0.02 0.02 0.02 0.02 0.02 0.02 0.02 0.02 0.02 0.02 0.02 0.02 0.02 0.02 0.02 0.02 0.02 0.02 0.02 0.02 0.02 0.02 0.02 0.02 0.02 0.02 0.02 0.02 0.02 0.02 0.02 0.02 0.02 0.02 0.02 0.02 0.02 0.02 0.02 0.02 0.02 0.02 0.02 0.02 0.02 0.02 0.02 0.02 0.02 0.02 0.02 0.02 0.02 0.02 0.02 0.02 0.02 0.02 0.02 0.02 0.02 0.02 0.02 0.02 0.02 0.02 0.02 0.02 0.02 0.02 0.02 0.02 0.02 0.02 0.02 0.02 0.02 0.02 0.02 0.02 0.02 0.02 0.02 0.02 0.02 0.02 0.02 0.02 0.02 0.02 0.02 0.02 0.02 0.02 0.02 0.02 0.02 0.02 0.02 0.02 0.02 0.02 0.02 0.02 0.02 0.02 0.02 0.02 0.02 0.02 0.02 0.02 0.02 0.02 0.02 0.02 0.02 0.02 0.02 0.02 0.02 0.02 0.02 0.02 0.02 0.02 0.02 0.02 0.02 0.02 0.02 0.02 0.0199999 0.0199999 0.0199999 0.0199999 0.0199999 0.0199999 0.0199999 0.0199999 0.0199999 0.0199999 0.0199999 0.0199999 0.0199999 0.0199999 0.0199999 0.0199999 0.02 0.02 0.02 0.02 0.02 0.02 0.02 0.02 0.02 0.0200001 0.0200001 0.0200001 0.0200001 0.0200002 0.0200002 0.0200002 0.0200003 0.0200003 0.0200004 0.0200004 0.0200005 0.0200005 0.0200006 0.0200007 0.0200007 0.0200008 0.0200009 0.020001 0.0200011 0.0200012 0.0200013 0.0200014 0.0200015 0.0200016 0.0200017 0.0200018 0.0200019 0.020002 0.0200021 0.0200022 0.0200023 0.0200024 0.0200025 0.0200026 0.0200026 0.0200027 0.0200027 0.0200027 0.0200027 0.0200026 0.0200026 0.0200024 0.0200023 0.0200021 0.0200019 0.0200016 0.0200012 0.0200008 0.0200004 0.0199998 0.0199992 0.0199985 0.0199978 0.0199969 0.0199959 0.0199948 0.0199936 0.0199923 0.0199909 0.0199893 0.0199875 0.0199857 0.0199837 0.0199815 0.0199791 0.0199766 0.0199739 0.019971 0.0199679 0.0199646 0.0199611 0.0199573 0.0199534 0.0199491 0.0199447 0.01994 0.019935 0.0199298 0.0199243 0.0199185 0.0199125 0.0199061 0.0198995 0.0198926 0.0198853 0.0198778 0.0198699 0.0198618 0.0198533 0.0198444 0.0198353 0.0198258 0.019816 0.0198058 0.0197953 0.0197844 0.0197732 0.0197617 0.0197498 0.0197376 0.019725 0.0197121 0.0196988 0.0196852 0.0196713 0.019657 0.0196424 0.0196275 0.0196123 0.0195968 0.019581 0.0195649 0.0195485 0.0195319 0.019515 0.0194979 0.0194805 0.0194629 0.0194452 0.0194273 0.0194092 0.019391 0.0193726 0.0193542 0.0193357 0.0193171 0.0192985 0.0192799 0.0192613 0.0192427 0.0192242 0.0192058 0.0191875 0.0191694 0.0191514 0.0191336 0.019116 0.0190986 0.0190815 0.0190647 0.0190482 0.019032 0.0190162 0.0190008 0.0189858 0.0189712 0.0189571 0.0189434 0.0189302 0.0189175 0.0189053 0.0188937 0.0188826 0.0188721 0.0188622 0.0188528 0.0188441 0.018836 0.0188285 0.0188216 0.0188154 0.0188098 0.0188048 0.0188005 0.0187969 0.0187939 0.0187915 0.0187898 0.0187888 0.0187884 0.0187887 0.0187896 0.0187911 0.0187933 0.0187961 0.0187995 0.0188035 0.0188082 0.0188134 0.0188191 0.0188255 0.0188324 0.0188398 0.0188477 0.0188562 0.0188651 0.0188745 0.0188844 0.0188947 0.0189054 0.0189166 0.0189281 0.01894 0.0189523 0.0189649 0.0189779 0.0189911 0.0190047 0.0190186 0.0190327 0.0190471 0.0190618 0.0190767 0.0190918 0.0191072 0.0191228 0.0191386 0.0191546 0.0191707 0.019187 0.0192034 0.01922 0.0192366 0.0192536 0.0192706 0.0192881 0.0193065 0.0193255 0.0193447 0.0193642 0.019384 0.019404 0.0194242 0.0194446 0.0194651 0.0194856 0.019506 0.0195262 0.019546 0.0195654 0.0195841 0.019602 0.0196187 0.0196341 0.0196479 0.0196599 0.0196696 0.019677 0.0196817 0.0196833 0.0196818 0.0196768 0.0196682 0.0196557 0.0196393 0.0196189 0.0195943 0.0195656 0.0195328 0.0194956 0.0194541 0.0194079 0.0193568 0.0193 0.019236 0.019162 0.0190804 0.0189892 0.0188859 0.0187702 0.0186409 0.018495 0.0183309 0.0181457 0.0179357 0.0176972 0.0174254 0.0171145 0.0167582 0.0163497 0.0158819 0.015347 0.0147358 0.0140385 0.0132434 0.0123422 0.0113566 0.0103488 0.00938846 0.00813704 0.00738342 0.00599283 0.0042315 0.00337726 0 0 0 0 0 0 0 0 0 0 0 0 0 0 0 0 0 0 0 0 0 0 0 0 0 0 0 0 0 0 0 0 0 0 0 0 0 0 0 0 0 0 0 0 0 0 0 0 0 0 0 0 0 0 0 0 0 0 0 0 0 0 0 0 0 0 0 0 0 0 0 0 0 0 0 0 0 0 0 0 0 0 0 0 0 0 0 0 0 0 0 0 0 0 0 0 0 0 0 0 0 0 0 0 0 0 0 0 0 0 0 0 0 0 0 0 0 0 0 0 0 0 0 0 0 0 0 0 0 0 0 0 0 0 0 0 0 0 0 0 0 0 0 0 0 0 0 0 0 0 0 0 0 0 0 0 0 
0.02 0.02 0.02 0.02 0.02 0.02 0.02 0.02 0.02 0.02 0.02 0.02 0.02 0.02 0.02 0.02 0.02 0.02 0.02 0.02 0.02 0.02 0.02 0.02 0.02 0.02 0.02 0.02 0.02 0.02 0.02 0.02 0.02 0.02 0.02 0.02 0.02 0.02 0.02 0.02 0.02 0.02 0.02 0.02 0.02 0.02 0.02 0.02 0.02 0.02 0.02 0.02 0.02 0.02 0.02 0.02 0.02 0.02 0.02 0.02 0.02 0.02 0.02 0.02 0.02 0.02 0.02 0.02 0.02 0.02 0.02 0.02 0.02 0.02 0.02 0.02 0.02 0.02 0.02 0.02 0.02 0.02 0.02 0.02 0.02 0.02 0.02 0.02 0.02 0.02 0.02 0.02 0.02 0.02 0.02 0.02 0.02 0.02 0.02 0.02 0.02 0.02 0.02 0.02 0.02 0.02 0.02 0.02 0.02 0.02 0.02 0.02 0.02 0.02 0.02 0.02 0.02 0.02 0.02 0.02 0.02 0.02 0.02 0.02 0.02 0.02 0.02 0.02 0.02 0.02 0.02 0.02 0.02 0.02 0.02 0.02 0.02 0.02 0.02 0.02 0.02 0.02 0.02 0.02 0.02 0.02 0.02 0.02 0.02 0.02 0.02 0.02 0.02 0.02 0.02 0.02 0.0199999 0.0199999 0.0199999 0.0199999 0.0199999 0.0199999 0.0199999 0.0199999 0.0199999 0.0199999 0.0199999 0.0199999 0.02 0.02 0.02 0.02 0.02 0.02 0.02 0.02 0.02 0.02 0.0200001 0.0200001 0.0200001 0.0200001 0.0200002 0.0200002 0.0200002 0.0200003 0.0200003 0.0200003 0.0200004 0.0200005 0.0200005 0.0200006 0.0200006 0.0200007 0.0200008 0.0200009 0.0200009 0.020001 0.0200011 0.0200012 0.0200013 0.0200014 0.0200015 0.0200016 0.0200018 0.0200019 0.020002 0.0200021 0.0200022 0.0200023 0.0200024 0.0200025 0.0200026 0.0200026 0.0200027 0.0200028 0.0200028 0.0200028 0.0200028 0.0200027 0.0200027 0.0200026 0.0200024 0.0200022 0.020002 0.0200017 0.0200014 0.020001 0.0200005 0.02 0.0199994 0.0199987 0.0199979 0.0199971 0.0199961 0.019995 0.0199938 0.0199925 0.0199911 0.0199895 0.0199878 0.0199859 0.0199839 0.0199817 0.0199794 0.0199769 0.0199742 0.0199713 0.0199682 0.0199649 0.0199614 0.0199577 0.0199537 0.0199496 0.0199451 0.0199404 0.0199355 0.0199303 0.0199248 0.0199191 0.0199131 0.0199068 0.0199002 0.0198933 0.0198861 0.0198785 0.0198707 0.0198626 0.0198541 0.0198453 0.0198362 0.0198268 0.019817 0.0198069 0.0197965 0.0197857 0.0197746 0.0197631 0.0197513 0.0197391 0.0197266 0.0197138 0.0197007 0.0196872 0.0196733 0.0196592 0.0196447 0.0196299 0.0196149 0.0195995 0.0195838 0.0195679 0.0195516 0.0195352 0.0195184 0.0195015 0.0194843 0.019467 0.0194494 0.0194317 0.0194138 0.0193958 0.0193777 0.0193595 0.0193412 0.0193228 0.0193045 0.0192861 0.0192677 0.0192494 0.0192312 0.019213 0.019195 0.0191771 0.0191593 0.0191418 0.0191244 0.0191073 0.0190905 0.0190739 0.0190576 0.0190417 0.0190262 0.019011 0.0189962 0.0189818 0.0189679 0.0189544 0.0189414 0.0189289 0.0189169 0.0189054 0.0188945 0.0188841 0.0188743 0.0188651 0.0188564 0.0188484 0.0188409 0.0188341 0.0188279 0.0188223 0.0188174 0.0188131 0.0188094 0.0188064 0.018804 0.0188023 0.0188011 0.0188007 0.0188008 0.0188016 0.018803 0.018805 0.0188077 0.0188109 0.0188148 0.0188192 0.0188242 0.0188298 0.0188359 0.0188425 0.0188497 0.0188574 0.0188656 0.0188743 0.0188835 0.0188931 0.0189031 0.0189136 0.0189245 0.0189358 0.0189474 0.0189594 0.0189718 0.0189844 0.0189974 0.0190107 0.0190243 0.0190381 0.0190523 0.0190666 0.0190812 0.0190961 0.0191111 0.0191264 0.0191419 0.0191575 0.0191733 0.0191893 0.0192055 0.019222 0.0192387 0.0192556 0.0192731 0.0192912 0.0193096 0.0193283 0.0193474 0.0193666 0.0193862 0.019406 0.0194259 0.019446 0.0194662 0.0194864 0.0195066 0.0195265 0.0195461 0.0195652 0.0195836 0.0196012 0.0196176 0.0196327 0.0196463 0.0196579 0.0196675 0.0196746 0.019679 0.0196805 0.0196788 0.0196736 0.0196649 0.0196523 0.0196358 0.0196154 0.0195908 0.0195622 0.0195294 0.0194924 0.019451 0.0194051 0.0193543 0.019298 0.0192356 0.0191658 0.0190868 0.018997 0.018896 0.0187823 0.0186537 0.0185086 0.0183449 0.0181599 0.01795 0.0177115 0.0174398 0.0171291 0.0167733 0.0163656 0.0158984 0.0153637 0.014753 0.0140585 0.0132762 0.0124032 0.011461 0.0104973 0.00954764 0.00853239 0.00730809 0.00583762 0.00419546 0.00248628 -0.000159616 -0.00254526 0 0 0 0 0 0 0 0 0 0 0 0 0 0 0 0 0 0 0 0 0 0 0 0 0 0 0 0 0 0 0 0 0 0 0 0 0 0 0 0 0 0 0 0 0 0 0 0 0 0 0 0 0 0 0 0 0 0 0 0 0 0 0 0 0 0 0 0 0 0 0 0 0 0 0 0 0 0 0 0 0 0 0 0 0 0 0 0 0 0 0 0 0 0 0 0 0 0 0 0 0 0 0 0 0 0 0 0 0 0 0 0 0 0 0 0 0 0 0 0 0 0 0 0 0 0 0 0 0 0 0 0 0 0 0 0 0 0 0 0 0 0 0 0 0 0 0 0 0 0 0 0 0 0 4.33681e-19 
0.02 0.02 0.02 0.02 0.02 0.02 0.02 0.02 0.02 0.02 0.02 0.02 0.02 0.02 0.02 0.02 0.02 0.02 0.02 0.02 0.02 0.02 0.02 0.02 0.02 0.02 0.02 0.02 0.02 0.02 0.02 0.02 0.02 0.02 0.02 0.02 0.02 0.02 0.02 0.02 0.02 0.02 0.02 0.02 0.02 0.02 0.02 0.02 0.02 0.02 0.02 0.02 0.02 0.02 0.02 0.02 0.02 0.02 0.02 0.02 0.02 0.02 0.02 0.02 0.02 0.02 0.02 0.02 0.02 0.02 0.02 0.02 0.02 0.02 0.02 0.02 0.02 0.02 0.02 0.02 0.02 0.02 0.02 0.02 0.02 0.02 0.02 0.02 0.02 0.02 0.02 0.02 0.02 0.02 0.02 0.02 0.02 0.02 0.02 0.02 0.02 0.02 0.02 0.02 0.02 0.02 0.02 0.02 0.02 0.02 0.02 0.02 0.02 0.02 0.02 0.02 0.02 0.02 0.02 0.02 0.02 0.02 0.02 0.02 0.02 0.02 0.02 0.02 0.02 0.02 0.02 0.02 0.02 0.02 0.02 0.02 0.02 0.02 0.02 0.02 0.02 0.02 0.02 0.02 0.02 0.02 0.02 0.02 0.02 0.02 0.02 0.02 0.02 0.02 0.02 0.02 0.02 0.02 0.02 0.02 0.02 0.02 0.02 0.02 0.02 0.02 0.02 0.02 0.02 0.02 0.02 0.02 0.02 0.02 0.02 0.02 0.02 0.0200001 0.0200001 0.0200001 0.0200001 0.0200002 0.0200002 0.0200002 0.0200003 0.0200003 0.0200003 0.0200004 0.0200004 0.0200005 0.0200005 0.0200006 0.0200007 0.0200008 0.0200008 0.0200009 0.020001 0.0200011 0.0200012 0.0200013 0.0200014 0.0200015 0.0200016 0.0200017 0.0200018 0.0200019 0.0200021 0.0200022 0.0200023 0.0200024 0.0200025 0.0200026 0.0200027 0.0200027 0.0200028 0.0200029 0.0200029 0.0200029 0.0200029 0.0200029 0.0200028 0.0200027 0.0200025 0.0200024 0.0200021 0.0200019 0.0200015 0.0200012 0.0200007 0.0200002 0.0199996 0.0199989 0.0199981 0.0199973 0.0199963 0.0199952 0.0199941 0.0199928 0.0199913 0.0199898 0.0199881 0.0199862 0.0199842 0.0199821 0.0199797 0.0199773 0.0199746 0.0199717 0.0199686 0.0199654 0.0199619 0.0199582 0.0199543 0.0199501 0.0199457 0.019941 0.0199361 0.019931 0.0199255 0.0199198 0.0199138 0.0199076 0.019901 0.0198941 0.019887 0.0198795 0.0198718 0.0198637 0.0198553 0.0198466 0.0198375 0.0198282 0.0198185 0.0198085 0.0197981 0.0197874 0.0197764 0.019765 0.0197533 0.0197413 0.0197289 0.0197162 0.0197032 0.0196899 0.0196762 0.0196622 0.0196479 0.0196333 0.0196184 0.0196032 0.0195878 0.019572 0.0195561 0.0195398 0.0195233 0.0195066 0.0194897 0.0194726 0.0194553 0.0194379 0.0194203 0.0194026 0.0193848 0.0193669 0.0193489 0.0193309 0.0193129 0.0192949 0.0192768 0.0192589 0.019241 0.0192232 0.0192055 0.0191879 0.0191705 0.0191533 0.0191364 0.0191196 0.0191031 0.0190869 0.019071 0.0190554 0.0190402 0.0190253 0.0190108 0.0189968 0.0189831 0.0189699 0.0189572 0.018945 0.0189332 0.018922 0.0189113 0.0189011 0.0188914 0.0188824 0.0188739 0.0188659 0.0188586 0.0188519 0.0188457 0.0188402 0.0188353 0.018831 0.0188273 0.0188242 0.0188218 0.0188199 0.0188187 0.0188181 0.0188181 0.0188188 0.01882 0.0188218 0.0188243 0.0188273 0.0188309 0.0188351 0.0188398 0.0188451 0.0188509 0.0188573 0.0188642 0.0188716 0.0188795 0.0188878 0.0188966 0.0189059 0.0189156 0.0189257 0.0189363 0.0189472 0.0189584 0.0189701 0.0189821 0.0189944 0.019007 0.0190199 0.0190331 0.0190466 0.0190603 0.0190743 0.0190886 0.019103 0.0191177 0.0191326 0.0191477 0.0191631 0.0191786 0.0191944 0.0192105 0.0192269 0.0192436 0.0192608 0.0192783 0.0192962 0.0193143 0.0193327 0.0193514 0.0193703 0.0193895 0.0194089 0.0194285 0.0194482 0.0194679 0.0194877 0.0195074 0.0195269 0.019546 0.0195646 0.0195826 0.0195997 0.0196156 0.0196303 0.0196434 0.0196546 0.0196637 0.0196704 0.0196744 0.0196755 0.0196734 0.0196679 0.0196589 0.0196461 0.0196294 0.0196088 0.0195841 0.0195555 0.0195227 0.0194858 0.0194446 0.0193989 0.0193484 0.0192926 0.0192306 0.0191616 0.0190844 0.0189974 0.0188988 0.0187868 0.01866 0.0185168 0.0183546 0.0181708 0.017962 0.0177247 0.0174543 0.0171454 0.0167919 0.0163871 0.0159239 0.0153946 0.0147922 0.0141127 0.0133545 0.0125214 0.0116251 0.0106862 0.00971271 0.00864469 0.00739678 0.00595205 0.00429547 0.00245228 -0.000152309 -0.00342696 -0.00741592 0 0 0 0 0 0 0 0 0 0 0 0 0 0 0 0 0 0 0 0 0 0 0 0 0 0 0 0 0 0 0 0 0 0 0 0 0 0 0 0 0 0 0 0 0 0 0 0 0 0 0 0 0 0 0 0 0 0 0 0 0 0 0 0 0 0 0 0 0 0 0 0 0 0 0 0 0 0 0 0 0 0 0 0 0 0 0 0 0 0 0 0 0 0 0 0 0 0 0 0 0 0 0 0 0 0 0 0 0 0 0 0 0 0 0 0 0 0 0 0 0 0 0 0 0 0 0 0 0 0 0 0 0 0 0 0 0 0 0 0 0 0 0 0 0 0 0 0 0 0 0 0 0 -1.6263e-18 
0.02 0.02 0.02 0.02 0.02 0.02 0.02 0.02 0.02 0.02 0.02 0.02 0.02 0.02 0.02 0.02 0.02 0.02 0.02 0.02 0.02 0.02 0.02 0.02 0.02 0.02 0.02 0.02 0.02 0.02 0.02 0.02 0.02 0.02 0.02 0.02 0.02 0.02 0.02 0.02 0.02 0.02 0.02 0.02 0.02 0.02 0.02 0.02 0.02 0.02 0.02 0.02 0.02 0.02 0.02 0.02 0.02 0.02 0.02 0.02 0.02 0.02 0.02 0.02 0.02 0.02 0.02 0.02 0.02 0.02 0.02 0.02 0.02 0.02 0.02 0.02 0.02 0.02 0.02 0.02 0.02 0.02 0.02 0.02 0.02 0.02 0.02 0.02 0.02 0.02 0.02 0.02 0.02 0.02 0.02 0.02 0.02 0.02 0.02 0.02 0.02 0.02 0.02 0.02 0.02 0.02 0.02 0.02 0.02 0.02 0.02 0.02 0.02 0.02 0.02 0.02 0.02 0.02 0.02 0.02 0.02 0.02 0.02 0.02 0.02 0.02 0.02 0.02 0.02 0.02 0.02 0.02 0.02 0.02 0.02 0.02 0.02 0.02 0.02 0.02 0.02 0.02 0.02 0.02 0.02 0.02 0.02 0.02 0.02 0.02 0.02 0.02 0.02 0.02 0.02 0.02 0.02 0.02 0.02 0.02 0.02 0.02 0.02 0.02 0.02 0.02 0.02 0.02 0.02 0.02 0.02 0.02 0.02 0.02 0.02 0.02 0.0200001 0.0200001 0.0200001 0.0200001 0.0200002 0.0200002 0.0200002 0.0200002 0.0200003 0.0200003 0.0200004 0.0200004 0.0200005 0.0200005 0.0200006 0.0200007 0.0200007 0.0200008 0.0200009 0.020001 0.0200011 0.0200012 0.0200012 0.0200013 0.0200015 0.0200016 0.0200017 0.0200018 0.0200019 0.020002 0.0200021 0.0200023 0.0200024 0.0200025 0.0200026 0.0200027 0.0200028 0.0200029 0.0200029 0.020003 0.020003 0.020003 0.020003 0.020003 0.0200029 0.0200028 0.0200027 0.0200025 0.0200023 0.020002 0.0200017 0.0200013 0.0200009 0.0200004 0.0199998 0.0199991 0.0199984 0.0199975 0.0199966 0.0199955 0.0199943 0.019993 0.0199916 0.0199901 0.0199884 0.0199866 0.0199846 0.0199825 0.0199802 0.0199777 0.019975 0.0199722 0.0199692 0.0199659 0.0199625 0.0199588 0.0199549 0.0199508 0.0199464 0.0199418 0.0199369 0.0199318 0.0199264 0.0199207 0.0199148 0.0199086 0.0199021 0.0198953 0.0198882 0.0198808 0.0198732 0.0198652 0.0198568 0.0198482 0.0198393 0.01983 0.0198204 0.0198105 0.0198003 0.0197897 0.0197788 0.0197676 0.0197561 0.0197442 0.019732 0.0197195 0.0197066 0.0196935 0.01968 0.0196663 0.0196522 0.0196378 0.0196232 0.0196083 0.0195931 0.0195776 0.0195619 0.019546 0.0195298 0.0195134 0.0194969 0.0194801 0.0194632 0.0194461 0.0194289 0.0194116 0.0193942 0.0193767 0.0193591 0.0193416 0.0193239 0.0193064 0.0192888 0.0192713 0.0192538 0.0192365 0.0192192 0.0192021 0.0191852 0.0191685 0.0191519 0.0191356 0.0191196 0.0191038 0.0190884 0.0190732 0.0190584 0.0190439 0.0190299 0.0190162 0.0190029 0.0189901 0.0189777 0.0189658 0.0189543 0.0189434 0.0189329 0.018923 0.0189136 0.0189047 0.0188964 0.0188886 0.0188814 0.0188747 0.0188687 0.0188632 0.0188583 0.018854 0.0188503 0.0188471 0.0188446 0.0188427 0.0188413 0.0188406 0.0188404 0.0188408 0.0188419 0.0188435 0.0188456 0.0188484 0.0188517 0.0188555 0.0188599 0.0188649 0.0188704 0.0188764 0.0188829 0.0188898 0.0188973 0.0189053 0.0189137 0.0189225 0.0189318 0.0189415 0.0189515 0.018962 0.0189728 0.018984 0.0189956 0.0190074 0.0190196 0.0190321 0.0190448 0.0190579 0.0190712 0.0190848 0.0190986 0.0191127 0.019127 0.0191416 0.0191564 0.0191714 0.0191868 0.0192024 0.0192184 0.0192346 0.0192512 0.0192681 0.0192853 0.0193027 0.0193204 0.0193384 0.0193566 0.0193751 0.0193937 0.0194126 0.0194316 0.0194508 0.01947 0.0194892 0.0195083 0.0195271 0.0195456 0.0195636 0.0195809 0.0195973 0.0196126 0.0196266 0.019639 0.0196496 0.0196581 0.0196642 0.0196677 0.0196682 0.0196657 0.0196598 0.0196503 0.0196372 0.0196202 0.0195994 0.0195746 0.0195459 0.0195131 0.0194764 0.0194354 0.01939 0.0193399 0.0192845 0.0192232 0.0191549 0.0190784 0.0189925 0.0188955 0.0187858 0.0186613 0.0185201 0.0183599 0.0181783 0.017972 0.0177374 0.0174701 0.0171651 0.0168166 0.0164182 0.0159636 0.0154465 0.0148614 0.0142058 0.0134819 0.0126918 0.0118355 0.0109175 0.00992091 0.00881601 0.00754281 0.00608196 0.00439561 0.00236676 -0.00014255 -0.00365651 -0.00770656 -0.0142657 0 0 0 0 0 0 0 0 0 0 0 0 0 0 0 0 0 0 0 0 0 0 0 0 0 0 0 0 0 0 0 0 0 0 0 0 0 0 0 0 0 0 0 0 0 0 0 0 0 0 0 0 0 0 0 0 0 0 0 0 0 0 0 0 0 0 0 0 0 0 0 0 0 0 0 0 0 0 0 0 0 0 0 0 0 0 0 0 0 0 0 0 0 0 0 0 0 0 0 0 0 0 0 0 0 0 0 0 0 0 0 0 0 0 0 0 0 0 0 0 0 0 0 0 0 0 0 0 0 0 0 0 0 0 0 0 0 0 0 0 0 0 0 0 0 0 0 0 0 0 0 -0.0071763 2.1684e-19 
0.02 0.02 0.02 0.02 0.02 0.02 0.02 0.02 0.02 0.02 0.02 0.02 0.02 0.02 0.02 0.02 0.02 0.02 0.02 0.02 0.02 0.02 0.02 0.02 0.02 0.02 0.02 0.02 0.02 0.02 0.02 0.02 0.02 0.02 0.02 0.02 0.02 0.02 0.02 0.02 0.02 0.02 0.02 0.02 0.02 0.02 0.02 0.02 0.02 0.02 0.02 0.02 0.02 0.02 0.02 0.02 0.02 0.02 0.02 0.02 0.02 0.02 0.02 0.02 0.02 0.02 0.02 0.02 0.02 0.02 0.02 0.02 0.02 0.02 0.02 0.02 0.02 0.02 0.02 0.02 0.02 0.02 0.02 0.02 0.02 0.02 0.02 0.02 0.02 0.02 0.02 0.02 0.02 0.02 0.02 0.02 0.02 0.02 0.02 0.02 0.02 0.02 0.02 0.02 0.02 0.02 0.02 0.02 0.02 0.02 0.02 0.02 0.02 0.02 0.02 0.02 0.02 0.02 0.02 0.02 0.02 0.02 0.02 0.02 0.02 0.02 0.02 0.02 0.02 0.02 0.02 0.02 0.02 0.02 0.02 0.02 0.02 0.02 0.02 0.02 0.02 0.02 0.02 0.02 0.02 0.02 0.02 0.02 0.02 0.02 0.02 0.02 0.02 0.02 0.02 0.02 0.02 0.02 0.02 0.02 0.02 0.02 0.02 0.02 0.02 0.02 0.02 0.02 0.02 0.02 0.02 0.02 0.02 0.02 0.0200001 0.0200001 0.0200001 0.0200001 0.0200001 0.0200002 0.0200002 0.0200002 0.0200002 0.0200003 0.0200003 0.0200004 0.0200004 0.0200005 0.0200005 0.0200006 0.0200006 0.0200007 0.0200008 0.0200009 0.0200009 0.020001 0.0200011 0.0200012 0.0200013 0.0200014 0.0200015 0.0200016 0.0200018 0.0200019 0.020002 0.0200021 0.0200022 0.0200024 0.0200025 0.0200026 0.0200027 0.0200028 0.0200029 0.020003 0.020003 0.0200031 0.0200031 0.0200032 0.0200032 0.0200031 0.0200031 0.020003 0.0200029 0.0200027 0.0200025 0.0200022 0.0200019 0.0200015 0.0200011 0.0200006 0.02 0.0199994 0.0199986 0.0199978 0.0199969 0.0199958 0.0199947 0.0199934 0.019992 0.0199905 0.0199888 0.019987 0.0199851 0.0199829 0.0199807 0.0199782 0.0199756 0.0199728 0.0199698 0.0199666 0.0199632 0.0199595 0.0199557 0.0199516 0.0199473 0.0199427 0.0199379 0.0199328 0.0199275 0.0199219 0.0199161 0.0199099 0.0199035 0.0198968 0.0198898 0.0198825 0.0198749 0.019867 0.0198588 0.0198503 0.0198415 0.0198323 0.0198229 0.0198131 0.019803 0.0197926 0.0197819 0.0197709 0.0197595 0.0197478 0.0197359 0.0197236 0.019711 0.019698 0.0196848 0.0196713 0.0196575 0.0196435 0.0196291 0.0196145 0.0195997 0.0195846 0.0195692 0.0195537 0.0195379 0.0195219 0.0195058 0.0194894 0.019473 0.0194563 0.0194396 0.0194228 0.0194058 0.0193888 0.0193718 0.0193547 0.0193376 0.0193206 0.0193035 0.0192866 0.0192697 0.0192529 0.0192362 0.0192196 0.0192033 0.0191871 0.0191711 0.0191553 0.0191398 0.0191246 0.0191096 0.019095 0.0190807 0.0190667 0.0190531 0.0190399 0.0190271 0.0190147 0.0190027 0.0189911 0.0189801 0.0189694 0.0189593 0.0189496 0.0189405 0.0189318 0.0189237 0.0189161 0.018909 0.0189025 0.0188965 0.0188911 0.0188862 0.0188819 0.0188781 0.0188749 0.0188723 0.0188702 0.0188687 0.0188678 0.0188674 0.0188676 0.0188684 0.0188697 0.0188715 0.0188739 0.0188769 0.0188804 0.0188844 0.0188889 0.018894 0.0188995 0.0189056 0.0189121 0.0189191 0.0189265 0.0189344 0.0189428 0.0189516 0.0189607 0.0189703 0.0189803 0.0189906 0.0190013 0.0190123 0.0190237 0.0190354 0.0190474 0.0190597 0.0190723 0.0190851 0.0190983 0.0191117 0.0191254 0.0191394 0.0191536 0.0191681 0.0191828 0.0191979 0.0192132 0.0192288 0.0192447 0.0192609 0.0192773 0.019294 0.0193109 0.019328 0.0193454 0.019363 0.0193809 0.0193989 0.0194171 0.0194355 0.0194539 0.0194724 0.0194908 0.0195092 0.0195272 0.0195449 0.0195621 0.0195786 0.0195942 0.0196087 0.0196219 0.0196335 0.0196433 0.019651 0.0196564 0.0196591 0.019659 0.0196559 0.0196494 0.0196395 0.019626 0.0196087 0.0195876 0.0195627 0.0195339 0.0195013 0.0194646 0.0194239 0.0193789 0.0193293 0.0192745 0.0192139 0.0191464 0.0190709 0.0189861 0.0188904 0.0187822 0.0186596 0.0185207 0.0183632 0.0181845 0.0179816 0.017751 0.0174886 0.0171897 0.0168492 0.0164614 0.0160207 0.0155222 0.014962 0.0143383 0.0136523 0.0129045 0.0120879 0.0111876 0.0101853 0.00904569 0.00774165 0.00624353 0.00450062 0.00238491 -0.000330417 -0.00378182 -0.00868823 -0.0139149 -0.0197111 0 0 0 0 0 0 0 0 0 0 0 0 0 0 0 0 0 0 0 0 0 0 0 0 0 0 0 0 0 0 0 0 0 0 0 0 0 0 0 0 0 0 0 0 0 0 0 0 0 0 0 0 0 0 0 0 0 0 0 0 0 0 0 0 0 0 0 0 0 0 0 0 0 0 0 0 0 0 0 0 0 0 0 0 0 0 0 0 0 0 0 0 0 0 0 0 0 0 0 0 0 0 0 0 0 0 0 0 0 0 0 0 0 0 0 0 0 0 0 0 0 0 0 0 0 0 0 0 0 0 0 0 0 0 0 0 0 0 0 0 0 0 0 0 0 0 0 0 0 0 -0.00991671 1.0842e-18 