# vtk DataFile Version 2.0
iteration 972
ASCII

DATASET STRUCTURED_POINTS
DIMENSIONS 621 64 1
ORIGIN 0 0 0
SPACING 0.00161031 0.00161031 0.00161031

POINT_DATA 39744
SCALARS P float 1
LOOKUP_TABLE default
0 0 0 0 0 0 0 0 0 0 0 0 0 0 0 0 0 0 0 0 0 0 0 0 0 0 0 0 0 0 0 0 0 0 0 0 0 0 0 0 0 0 0 0 0 0 0 0 0 0 0 0 0 0 0 0 0 0 0 0 0 0 0 0 0 0 0 0 0 0 0 0 0 0 0 0 0 0 0 0 0 0 0 0 0 0 0 0 0 0 0 0 0 0 0 0 0 0 0 0 0 0 0 0 0 0 0 0 0 0 0 0 0 0 0 0 0 0 0 0 0 0 0 0 0 0 0 0 0 0 0 0 0 0 0 0 0 0 0 0 0 0 0 0 0 0 0 0 0 0 0 0 0 0 0 0 0 0 0 0 0 0 0 0 0 0 0 0 0 0 0 0 0 0 0 0 0 0 0 0 0 0 0 0 0 0 0 0 0 0 0 0 0 0 0 0 0 0 0 0 0 0 0 0 0 0 0 0 0 0 0 0 0 0 0 0 0 0 0 0 0 0 0 0 0 0 0 0 0 0 0 0 0 0 0 0 0 0 0 0 0 0 0 0 0 0 0 0 0 0 0 0 0 0 0 0 0 0 0 0 0 0 0 0 0 0 0 0 0 0 0 0 0 0 0 0 0 0 0 0 0 0 0 0 0 0 0 0 0 0 0 0 0 0 0 0 0 0 0 0 0 0 0 0 0 0 0 0 0 0 0 0 0 0 0 0 0 0 0 0 0 0 0 0 0 0 0 0 0 0 0 0 0 0 0 0 0 0 0 0 0 0 0 0 0 0 0 0 0 0 0 0 0 0 0 0 0 0 0 0 0 0 0 0 0 0 0 0 0 0 0 0 0 0 0 0 0 0 0 0 0 0 0 0 0 0 0 0 0 0 0 0 0 0 0 0 0 0 0 0 0 0 0 0 0 0 0 0 0 0 0 0 0 0 0 0 0 0 0 0 0 0 0 0 0 0 0 0 0 0 0 0 0 0 0 0 0 0 0 0 0 0 0 0 0 0 0 0 0 0 0 0 0 0 0 0 0 0 0 0 0 0 0 0 0 0 0 0 0 0 0 0 0 0 0 0 0 0 0 0 0 0 0 0 0 0 0 0 0 0 0 0 0 0 0 0 0 0 0 0 0 0 0 0 0 0 0 0 0 0 0 0 0 0 0 0 0 0 0 0 0 0 0 0 0 0 0 0 0 0 0 0 0 0 0 0 0 0 0 0 0 0 0 0 0 0 0 0 0 0 0 0 0 0 0 0 0 0 0 0 0 0 0 0 0 0 0 0 0 0 0 0 0 0 0 0 0 0 0 0 0 0 0 0 0 0 0 0 0 0 0 0 0 0 0 0 0 0 0 0 0 0 0 0 0 0 0 0 0 0 0 0 0 0 0 0 0 0 0 0 0 
0.02 0.02 0.02 0.02 0.02 0.02 0.02 0.02 0.02 0.02 0.02 0.02 0.02 0.02 0.02 0.02 0.02 0.02 0.02 0.02 0.02 0.02 0.02 0.02 0.02 0.02 0.02 0.02 0.02 0.02 0.02 0.02 0.02 0.02 0.02 0.02 0.02 0.02 0.02 0.02 0.02 0.02 0.02 0.02 0.02 0.02 0.0200001 0.0200001 0.0200001 0.0200001 0.0200001 0.0200001 0.0200001 0.0200002 0.0200002 0.0200002 0.0200002 0.0200003 0.0200003 0.0200003 0.0200004 0.0200004 0.0200005 0.0200006 0.0200006 0.0200007 0.0200008 0.0200009 0.0200011 0.0200012 0.0200013 0.0200015 0.0200017 0.0200019 0.0200021 0.0200024 0.0200026 0.0200029 0.0200033 0.0200037 0.0200041 0.0200045 0.020005 0.0200056 0.0200062 0.0200069 0.0200077 0.0200085 0.0200094 0.0200105 0.0200116 0.0200129 0.0200143 0.0200159 0.0200176 0.0200196 0.0200217 0.0200241 0.0200267 0.0200296 0.0200328 0.0200363 0.0200402 0.0200445 0.0200493 0.0200545 0.0200602 0.0200665 0.0200734 0.0200809 0.0200891 0.0200981 0.0201078 0.0201184 0.0201299 0.0201423 0.0201557 0.02017 0.0201854 0.020202 0.0202197 0.0202385 0.0202585 0.0202796 0.0203018 0.0203249 0.0203492 0.0203746 0.0204008 0.0204277 0.0204553 0.0204834 0.0205118 0.0205405 0.0205692 0.020598 0.0206266 0.0206551 0.0206831 0.0207104 0.0207367 0.020762 0.0207858 0.0208082 0.020829 0.020848 0.0208652 0.0208807 0.0208942 0.020906 0.020916 0.0209243 0.020931 0.0209361 0.0209398 0.0209422 0.0209434 0.0209434 0.0209424 0.0209405 0.0209376 0.0209339 0.0209294 0.0209239 0.0209176 0.0209103 0.020902 0.0208925 0.0208818 0.0208697 0.020856 0.0208407 0.0208235 0.0208043 0.0207828 0.0207589 0.0207323 0.0207026 0.0206697 0.020633 0.0205922 0.020547 0.0204969 0.0204414 0.02038 0.0203124 0.0202379 0.0201561 0.0200664 0.0199683 0.0198612 0.0197445 0.0196173 0.019479 0.0193286 0.0191652 0.0189876 0.0187945 0.0185845 0.0183558 0.0181058 0.0178308 0.0175277 0.0171984 0.0168543 0.0165366 0.0165239 0.0190117 0 0 0 0 0 0 0 0 0 0 0 0 0 0 0 0 0 0 0 0 0 0 0 0 0 0 0 0 0 0 0 0 0 0 0 0 0 0 0 0 0 0 0 0 0 0 0 0 0 0 0 0 0 0 0 0 0 0 0 0 0 0 0 0 0 0 0 0 0 0 0 0 0 0 0 0 0 0 0 0 0 0 0 0 0 0 0 0 0 0 0 0 0 0 0 0 0 0 0 0 0 0 0 0 0 0 0 0 0 0 0 0 0 0 0 0 0 0 0 0 0 0 0 0 0 0 0 0 0 0 0 0 0 0 0 0 0 0 0 0 0 0 0 0 0 0 0 0 0 0 0 0 0 0 0 0 0 0 0 0 0 0 0 0 0 0 0 0 0 0 0 0 0 0 0 0 0 0 0 0 0 0 0 0 0 0 0 0 0 0 0 0 0 0 0 0 0 0 0 0 0 0 0 0 0 0 0 0 0 0 0 0 0 0 0 0 0 0 0 0 0 0 0 0 0 0 0 0 0 0 0 0 0 0 0 0 0 0 0 0 0 0 0 0 0 0 0 0 0 0 0 0 0 0 0 0 0 0 0 0 0 0 0 0 0 0 0 0 0 0 0 0 0 0 0 0 0 0 0 0 0 0 0 0 0 0 0 0 0 0 0 0 0 0 0 0 0 0 0 0 0 0 0 0 0 0 0 0 0 0 0 0 0 0 0 0 0 0 0 0 0 0 0 0 0 0 0 0 0 0 0 0 0 0 0 0 0 0 0 0 0 0 0 0 0 0 0 0 0 0 0 0 0 0 0 0 0 0 0 0 0 0 0 0 0 0 0 0 0 0 0 0 0 0 0 0 0 0 0 0 0 0 0 0 0 0 0 0 0 0 0 0 0 0 0 0 0 0 0 0 0 0 0 0 0 0 0 0 0 0 0 0 0 
0.02 0.02 0.02 0.02 0.02 0.02 0.02 0.02 0.02 0.02 0.02 0.02 0.02 0.02 0.02 0.02 0.02 0.02 0.02 0.02 0.02 0.02 0.02 0.02 0.02 0.02 0.02 0.02 0.02 0.02 0.02 0.02 0.02 0.02 0.02 0.02 0.02 0.02 0.02 0.02 0.02 0.02 0.02 0.02 0.02 0.02 0.0200001 0.0200001 0.0200001 0.0200001 0.0200001 0.0200001 0.0200001 0.0200001 0.0200002 0.0200002 0.0200002 0.0200002 0.0200003 0.0200003 0.0200004 0.0200004 0.0200005 0.0200005 0.0200006 0.0200007 0.0200008 0.0200009 0.020001 0.0200011 0.0200013 0.0200014 0.0200016 0.0200018 0.020002 0.0200023 0.0200025 0.0200028 0.0200032 0.0200035 0.0200039 0.0200044 0.0200049 0.0200054 0.020006 0.0200067 0.0200074 0.0200083 0.0200092 0.0200102 0.0200113 0.0200126 0.020014 0.0200155 0.0200172 0.0200191 0.0200212 0.0200236 0.0200261 0.020029 0.0200322 0.0200356 0.0200395 0.0200438 0.0200484 0.0200536 0.0200593 0.0200655 0.0200723 0.0200797 0.0200879 0.0200968 0.0201064 0.0201169 0.0201283 0.0201406 0.0201539 0.0201683 0.0201836 0.0202001 0.0202177 0.0202364 0.0202563 0.0202774 0.0202995 0.0203226 0.0203469 0.0203722 0.0203983 0.0204253 0.0204529 0.0204809 0.0205094 0.020538 0.0205667 0.0205953 0.0206239 0.0206522 0.0206801 0.0207073 0.0207336 0.0207587 0.0207826 0.0208049 0.0208257 0.0208448 0.020862 0.0208775 0.0208911 0.0209029 0.020913 0.0209213 0.020928 0.0209331 0.0209368 0.0209392 0.0209403 0.0209403 0.0209393 0.0209373 0.0209344 0.0209306 0.020926 0.0209204 0.020914 0.0209067 0.0208983 0.0208888 0.020878 0.0208658 0.0208522 0.0208369 0.0208197 0.0208006 0.0207792 0.0207554 0.0207289 0.0206994 0.0206665 0.02063 0.0205894 0.0205444 0.0204944 0.0204391 0.0203779 0.0203103 0.020236 0.0201543 0.0200648 0.0199668 0.0198598 0.0197431 0.0196161 0.0194779 0.0193276 0.0191642 0.0189866 0.0187935 0.0185835 0.0183548 0.0181048 0.0178298 0.0175269 0.0172001 0.0168644 0.0165771 0.0164563 0.0165921 0.0160057 0.0152412 0.014708 0.0141573 0.0135678 0.0129369 0.0122375 0.0114253 0.0104456 0.0095195 0.00870734 0.00788841 0.00821039 0 0 0 0 0 0 0 0 0 0 0 0 0 0 0 0 0 0 0 0 0 0 0 0 0 0 0 0 0 0 0 0 0 0 0 0 0 0 0 0 0 0 0 0 0 0 0 0 0 0 0 0 0 0 0 0 0 0 0 0 0 0 0 0 0 0 0 0 0 0 0 0 0 0 0 0 0 0 0 0 0 0 0 0 0 0 0 0 0 0 0 0 0 0 0 0 0 0 0 0 0 0 0 0 0 0 0 0 0 0 0 0 0 0 0 0 0 0 0 0 0 0 0 0 0 0 0 0 0 0 0 0 0 0 0 0 0 0 0 0 0 0 0 0 0 0 0 0 0 0 0 0 0 0 0 0 0 0 0 0 0 0 0 0 0 0 0 0 0 0 0 0 0 0 0 0 0 0 0 0 0 0 0 0 0 0 0 0 0 0 0 0 0 0 0 0 0 0 0 0 0 0 0 0 0 0 0 0 0 0 0 0 0 0 0 0 0 0 0 0 0 0 0 0 0 0 0 0 0 0 0 0 0 0 0 0 0 0 0 0 0 0 0 0 0 0 0 0 0 0 0 0 0 0 0 0 0 0 0 0 0 0 0 0 0 0 0 0 0 0 0 0 0 0 0 0 0 0 0 0 0 0 0 0 0 0 0 0 0 0 0 0 0 0 0 0 0 0 0 0 0 0 0 0 0 0 0 0 0 0 0 0 0 0 0 0 0 0 0 0 0 0 0 0 0 0 0 0 0 0 0 0 0 0 0 0 0 0 0 0 0 0 0 0 0 0 0 0 0 0 0 0 0 0 0 0 0 0 0 0 0 0 0 0 0 0 0 0 0 0 0 0 0 0 0 0 0 0 0 0 0 0 0 0 0 0 0 0 0 0 0 0 0 0 0 0 0 0 0 0 
0.02 0.02 0.02 0.02 0.02 0.02 0.02 0.02 0.02 0.02 0.02 0.02 0.02 0.02 0.02 0.02 0.02 0.02 0.02 0.02 0.02 0.02 0.02 0.02 0.02 0.02 0.02 0.02 0.02 0.02 0.02 0.02 0.02 0.02 0.02 0.02 0.02 0.02 0.02 0.02 0.02 0.02 0.02 0.02 0.02 0.02 0.02 0.0200001 0.0200001 0.0200001 0.0200001 0.0200001 0.0200001 0.0200001 0.0200001 0.0200002 0.0200002 0.0200002 0.0200003 0.0200003 0.0200003 0.0200004 0.0200004 0.0200005 0.0200006 0.0200006 0.0200007 0.0200008 0.0200009 0.0200011 0.0200012 0.0200014 0.0200015 0.0200017 0.0200019 0.0200021 0.0200024 0.0200027 0.020003 0.0200033 0.0200037 0.0200042 0.0200046 0.0200052 0.0200057 0.0200064 0.0200071 0.0200079 0.0200088 0.0200098 0.0200109 0.0200121 0.0200135 0.020015 0.0200166 0.0200185 0.0200206 0.0200228 0.0200254 0.0200282 0.0200313 0.0200347 0.0200385 0.0200427 0.0200474 0.0200524 0.020058 0.0200642 0.0200709 0.0200783 0.0200864 0.0200952 0.0201048 0.0201152 0.0201265 0.0201387 0.0201519 0.0201662 0.0201815 0.0201978 0.0202153 0.020234 0.0202538 0.0202747 0.0202968 0.02032 0.0203442 0.0203694 0.0203956 0.0204225 0.0204501 0.0204782 0.0205067 0.0205353 0.0205639 0.0205924 0.0206207 0.0206488 0.0206764 0.0207034 0.0207295 0.0207545 0.0207781 0.0208004 0.020821 0.02084 0.0208571 0.0208725 0.020886 0.0208978 0.0209077 0.020916 0.0209226 0.0209276 0.0209312 0.0209335 0.0209345 0.0209344 0.0209332 0.0209311 0.0209281 0.0209242 0.0209194 0.0209138 0.0209073 0.0208998 0.0208913 0.0208817 0.0208709 0.0208587 0.020845 0.0208297 0.0208126 0.0207934 0.0207721 0.0207484 0.0207219 0.0206925 0.0206598 0.0206234 0.0205829 0.020538 0.0204882 0.0204329 0.0203718 0.0203044 0.0202301 0.0201485 0.0200589 0.0199609 0.0198539 0.0197372 0.01961 0.0194717 0.0193212 0.0191576 0.0189798 0.0187863 0.0185759 0.0183468 0.0180965 0.0178213 0.0175194 0.0171969 0.01688 0.0166237 0.016458 0.0163054 0.0158398 0.0152479 0.0146947 0.0141282 0.0135271 0.0128727 0.0121516 0.0113347 0.0104379 0.00955146 0.00874068 0.00767114 0.00704323 0.0059169 0.00458082 0.00325604 0.00184014 0.00031865 -0.00080795 0 0 0 0 0 0 0 0 0 0 0 0 0 0 0 0 0 0 0 0 0 0 0 0 0 0 0 0 0 0 0 0 0 0 0 0 0 0 0 0 0 0 0 0 0 0 0 0 0 0 0 0 0 0 0 0 0 0 0 0 0 0 0 0 0 0 0 0 0 0 0 0 0 0 0 0 0 0 0 0 0 0 0 0 0 0 0 0 0 0 0 0 0 0 0 0 0 0 0 0 0 0 0 0 0 0 0 0 0 0 0 0 0 0 0 0 0 0 0 0 0 0 0 0 0 0 0 0 0 0 0 0 0 0 0 0 0 0 0 0 0 0 0 0 0 0 0 0 0 0 0 0 0 0 0 0 0 0 0 0 0 0 0 0 0 0 0 0 0 0 0 0 0 0 0 0 0 0 0 0 0 0 0 0 0 0 0 0 0 0 0 0 0 0 0 0 0 0 0 0 0 0 0 0 0 0 0 0 0 0 0 0 0 0 0 0 0 0 0 0 0 0 0 0 0 0 0 0 0 0 0 0 0 0 0 0 0 0 0 0 0 0 0 0 0 0 0 0 0 0 0 0 0 0 0 0 0 0 0 0 0 0 0 0 0 0 0 0 0 0 0 0 0 0 0 0 0 0 0 0 0 0 0 0 0 0 0 0 0 0 0 0 0 0 0 0 0 0 0 0 0 0 0 0 0 0 0 0 0 0 0 0 0 0 0 0 0 0 0 0 0 0 0 0 0 0 0 0 0 0 0 0 0 0 0 0 0 0 0 0 0 0 0 0 0 0 0 0 0 0 0 0 0 0 0 0 0 0 0 0 0 0 0 0 0 0 0 0 0 0 0 0 0 0 0 0 0 0 0 0 0 0 0 0 0 0 0 0 0 0 0 0 0 0 
0.02 0.02 0.02 0.02 0.02 0.02 0.02 0.02 0.02 0.02 0.02 0.02 0.02 0.02 0.02 0.02 0.02 0.02 0.02 0.02 0.02 0.02 0.02 0.02 0.02 0.02 0.02 0.02 0.02 0.02 0.02 0.02 0.02 0.02 0.02 0.02 0.02 0.02 0.02 0.02 0.02 0.02 0.02 0.02 0.02 0.02 0.02 0.02 0.0200001 0.0200001 0.0200001 0.0200001 0.0200001 0.0200001 0.0200001 0.0200002 0.0200002 0.0200002 0.0200002 0.0200003 0.0200003 0.0200003 0.0200004 0.0200005 0.0200005 0.0200006 0.0200007 0.0200008 0.0200009 0.020001 0.0200011 0.0200012 0.0200014 0.0200016 0.0200018 0.020002 0.0200022 0.0200025 0.0200028 0.0200031 0.0200035 0.0200039 0.0200044 0.0200049 0.0200054 0.020006 0.0200067 0.0200075 0.0200084 0.0200093 0.0200104 0.0200116 0.0200129 0.0200143 0.020016 0.0200178 0.0200198 0.020022 0.0200245 0.0200272 0.0200303 0.0200337 0.0200374 0.0200415 0.0200461 0.0200511 0.0200566 0.0200627 0.0200693 0.0200766 0.0200846 0.0200933 0.0201027 0.020113 0.0201242 0.0201363 0.0201494 0.0201635 0.0201787 0.020195 0.0202123 0.0202308 0.0202505 0.0202713 0.0202932 0.0203162 0.0203403 0.0203654 0.0203914 0.0204182 0.0204458 0.0204739 0.0205023 0.0205309 0.0205594 0.0205878 0.0206159 0.0206436 0.0206709 0.0206975 0.0207232 0.0207478 0.0207712 0.0207931 0.0208135 0.0208322 0.0208491 0.0208642 0.0208775 0.020889 0.0208988 0.0209068 0.0209132 0.020918 0.0209214 0.0209235 0.0209243 0.020924 0.0209226 0.0209203 0.0209171 0.0209131 0.0209081 0.0209024 0.0208957 0.0208882 0.0208796 0.0208699 0.0208591 0.0208469 0.0208332 0.0208179 0.0208009 0.0207819 0.0207607 0.0207371 0.0207109 0.0206817 0.0206492 0.0206131 0.0205729 0.0205283 0.0204787 0.0204237 0.0203629 0.0202957 0.0202217 0.0201403 0.0200509 0.019953 0.0198461 0.0197293 0.0196021 0.0194637 0.019313 0.0191492 0.0189709 0.018777 0.018566 0.0183363 0.0180858 0.0178113 0.017512 0.0171971 0.016895 0.0166386 0.016425 0.0161683 0.0157451 0.0152254 0.014681 0.0141059 0.0134983 0.0128272 0.0120956 0.011285 0.0104274 0.00957361 0.00875942 0.00791112 0.00688651 0.00572683 0.00449871 0.0032021 0.00184443 0.000471519 -0.00109567 -0.00276015 -0.00457163 -0.00643489 -0.00881898 -0.010442 0 0 0 0 0 0 0 0 0 0 0 0 0 0 0 0 0 0 0 0 0 0 0 0 0 0 0 0 0 0 0 0 0 0 0 0 0 0 0 0 0 0 0 0 0 0 0 0 0 0 0 0 0 0 0 0 0 0 0 0 0 0 0 0 0 0 0 0 0 0 0 0 0 0 0 0 0 0 0 0 0 0 0 0 0 0 0 0 0 0 0 0 0 0 0 0 0 0 0 0 0 0 0 0 0 0 0 0 0 0 0 0 0 0 0 0 0 0 0 0 0 0 0 0 0 0 0 0 0 0 0 0 0 0 0 0 0 0 0 0 0 0 0 0 0 0 0 0 0 0 0 0 0 0 0 0 0 0 0 0 0 0 0 0 0 0 0 0 0 0 0 0 0 0 0 0 0 0 0 0 0 0 0 0 0 0 0 0 0 0 0 0 0 0 0 0 0 0 0 0 0 0 0 0 0 0 0 0 0 0 0 0 0 0 0 0 0 0 0 0 0 0 0 0 0 0 0 0 0 0 0 0 0 0 0 0 0 0 0 0 0 0 0 0 0 0 0 0 0 0 0 0 0 0 0 0 0 0 0 0 0 0 0 0 0 0 0 0 0 0 0 0 0 0 0 0 0 0 0 0 0 0 0 0 0 0 0 0 0 0 0 0 0 0 0 0 0 0 0 0 0 0 0 0 0 0 0 0 0 0 0 0 0 0 0 0 0 0 0 0 0 0 0 0 0 0 0 0 0 0 0 0 0 0 0 0 0 0 0 0 0 0 0 0 0 0 0 0 0 0 0 0 0 0 0 0 0 0 0 0 0 0 0 0 0 0 0 0 0 0 0 0 0 0 0 0 0 0 0 0 0 0 0 0 0 0 0 -0.00409227 -3.25261e-19 
0.02 0.02 0.02 0.02 0.02 0.02 0.02 0.02 0.02 0.02 0.02 0.02 0.02 0.02 0.02 0.02 0.02 0.02 0.02 0.02 0.02 0.02 0.02 0.02 0.02 0.02 0.02 0.02 0.02 0.02 0.02 0.02 0.02 0.02 0.02 0.02 0.02 0.02 0.02 0.02 0.02 0.02 0.02 0.02 0.02 0.02 0.02 0.02 0.02 0.0200001 0.0200001 0.0200001 0.0200001 0.0200001 0.0200001 0.0200001 0.0200002 0.0200002 0.0200002 0.0200002 0.0200003 0.0200003 0.0200004 0.0200004 0.0200005 0.0200005 0.0200006 0.0200007 0.0200008 0.0200009 0.020001 0.0200011 0.0200013 0.0200014 0.0200016 0.0200018 0.0200021 0.0200023 0.0200026 0.0200029 0.0200032 0.0200036 0.0200041 0.0200045 0.0200051 0.0200057 0.0200063 0.0200071 0.0200079 0.0200088 0.0200098 0.020011 0.0200122 0.0200136 0.0200152 0.020017 0.0200189 0.0200211 0.0200235 0.0200262 0.0200292 0.0200325 0.0200361 0.0200401 0.0200446 0.0200495 0.0200549 0.0200609 0.0200674 0.0200746 0.0200824 0.020091 0.0201004 0.0201105 0.0201216 0.0201335 0.0201464 0.0201604 0.0201753 0.0201914 0.0202086 0.0202269 0.0202463 0.0202669 0.0202886 0.0203114 0.0203352 0.0203601 0.0203859 0.0204125 0.0204398 0.0204677 0.020496 0.0205245 0.0205529 0.020581 0.0206089 0.0206362 0.0206631 0.0206892 0.0207144 0.0207385 0.0207614 0.0207829 0.0208028 0.0208211 0.0208376 0.0208524 0.0208653 0.0208765 0.0208859 0.0208935 0.0208996 0.0209041 0.0209072 0.0209089 0.0209094 0.0209088 0.0209072 0.0209046 0.0209012 0.0208969 0.0208918 0.0208858 0.020879 0.0208714 0.0208627 0.020853 0.0208421 0.02083 0.0208164 0.0208012 0.0207844 0.0207656 0.0207447 0.0207214 0.0206955 0.0206667 0.0206347 0.020599 0.0205593 0.0205152 0.0204661 0.0204117 0.0203514 0.0202847 0.0202111 0.0201301 0.0200411 0.0199435 0.0198368 0.0197202 0.0195931 0.0194546 0.0193038 0.0191396 0.0189609 0.0187664 0.0185547 0.0183245 0.0180742 0.0178018 0.0175076 0.0172014 0.0169049 0.0166376 0.0163803 0.0160775 0.0156705 0.0151848 0.0146529 0.0140787 0.0134637 0.012786 0.0120518 0.0112558 0.0104235 0.00957803 0.00872788 0.00782203 0.00678799 0.00564367 0.00441568 0.00312539 0.00176845 0.000346785 -0.00119727 -0.00283675 -0.00454559 -0.00637801 -0.00844294 -0.010552 -0.0127647 -0.0150113 -0.0176162 -0.0216706 0 0 0 0 0 0 0 0 0 0 0 0 0 0 0 0 0 0 0 0 0 0 0 0 0 0 0 0 0 0 0 0 0 0 0 0 0 0 0 0 0 0 0 0 0 0 0 0 0 0 0 0 0 0 0 0 0 0 0 0 0 0 0 0 0 0 0 0 0 0 0 0 0 0 0 0 0 0 0 0 0 0 0 0 0 0 0 0 0 0 0 0 0 0 0 0 0 0 0 0 0 0 0 0 0 0 0 0 0 0 0 0 0 0 0 0 0 0 0 0 0 0 0 0 0 0 0 0 0 0 0 0 0 0 0 0 0 0 0 0 0 0 0 0 0 0 0 0 0 0 0 0 0 0 0 0 0 0 0 0 0 0 0 0 0 0 0 0 0 0 0 0 0 0 0 0 0 0 0 0 0 0 0 0 0 0 0 0 0 0 0 0 0 0 0 0 0 0 0 0 0 0 0 0 0 0 0 0 0 0 0 0 0 0 0 0 0 0 0 0 0 0 0 0 0 0 0 0 0 0 0 0 0 0 0 0 0 0 0 0 0 0 0 0 0 0 0 0 0 0 0 0 0 0 0 0 0 0 0 0 0 0 0 0 0 0 0 0 0 0 0 0 0 0 0 0 0 0 0 0 0 0 0 0 0 0 0 0 0 0 0 0 0 0 0 0 0 0 0 0 0 0 0 0 0 0 0 0 0 0 0 0 0 0 0 0 0 0 0 0 0 0 0 0 0 0 0 0 0 0 0 0 0 0 0 0 0 0 0 0 0 0 0 0 0 0 0 0 0 0 0 0 0 0 0 0 0 0 0 0 0 0 0 0 0 0 0 0 0 0 0 0 0 0 0 0 0 0 0 0 0 0 -0.0128035 -0.00666164 -1.30104e-18 
0.02 0.02 0.02 0.02 0.02 0.02 0.02 0.02 0.02 0.02 0.02 0.02 0.02 0.02 0.02 0.02 0.02 0.02 0.02 0.02 0.02 0.02 0.02 0.02 0.02 0.02 0.02 0.02 0.02 0.02 0.02 0.02 0.02 0.02 0.02 0.02 0.02 0.02 0.02 0.02 0.02 0.02 0.02 0.02 0.02 0.02 0.02 0.02 0.02 0.02 0.02 0.0200001 0.0200001 0.0200001 0.0200001 0.0200001 0.0200001 0.0200001 0.0200002 0.0200002 0.0200002 0.0200003 0.0200003 0.0200004 0.0200004 0.0200005 0.0200005 0.0200006 0.0200007 0.0200008 0.0200009 0.020001 0.0200012 0.0200013 0.0200015 0.0200017 0.0200019 0.0200021 0.0200024 0.0200027 0.020003 0.0200033 0.0200038 0.0200042 0.0200047 0.0200053 0.0200059 0.0200066 0.0200074 0.0200083 0.0200092 0.0200103 0.0200115 0.0200129 0.0200144 0.0200161 0.020018 0.0200201 0.0200225 0.0200251 0.020028 0.0200312 0.0200347 0.0200387 0.020043 0.0200478 0.0200531 0.0200589 0.0200653 0.0200724 0.0200801 0.0200885 0.0200976 0.0201076 0.0201185 0.0201302 0.0201429 0.0201566 0.0201714 0.0201872 0.0202041 0.0202222 0.0202413 0.0202616 0.020283 0.0203055 0.020329 0.0203535 0.020379 0.0204052 0.0204322 0.0204597 0.0204877 0.0205159 0.0205441 0.020572 0.0205995 0.0206264 0.0206527 0.0206783 0.0207029 0.0207264 0.0207487 0.0207696 0.020789 0.0208067 0.0208227 0.0208369 0.0208494 0.02086 0.020869 0.0208762 0.0208818 0.0208859 0.0208885 0.0208898 0.02089 0.020889 0.020887 0.0208841 0.0208803 0.0208757 0.0208703 0.0208642 0.0208572 0.0208494 0.0208407 0.0208309 0.0208201 0.020808 0.0207946 0.0207796 0.020763 0.0207445 0.020724 0.0207012 0.0206758 0.0206476 0.0206161 0.0205811 0.0205421 0.0204986 0.0204503 0.0203966 0.020337 0.020271 0.0201981 0.0201178 0.0200293 0.0199323 0.019826 0.0197098 0.0195828 0.0194444 0.0192934 0.019129 0.0189499 0.0187547 0.0185423 0.0183116 0.018062 0.0177933 0.0175064 0.0172088 0.0169139 0.0166296 0.0163395 0.0160095 0.0156068 0.0151369 0.0146151 0.0140444 0.0134248 0.0127471 0.0120162 0.0112355 0.0104174 0.00957042 0.008687 0.00774202 0.00669601 0.00555631 0.00433174 0.00303635 0.00166911 0.00022098 -0.00132574 -0.00294509 -0.00466046 -0.0065127 -0.00850038 -0.0105401 -0.0126667 -0.0148686 -0.0165559 -0.0200623 -0.0225871 -0.0248373 -0.0277166 -0.0336944 0 0 0 0 0 0 0 0 0 0 0 0 0 0 0 0 0 0 0 0 0 0 0 0 0 0 0 0 0 0 0 0 0 0 0 0 0 0 0 0 0 0 0 0 0 0 0 0 0 0 0 0 0 0 0 0 0 0 0 0 0 0 0 0 0 0 0 0 0 0 0 0 0 0 0 0 0 0 0 0 0 0 0 0 0 0 0 0 0 0 0 0 0 0 0 0 0 0 0 0 0 0 0 0 0 0 0 0 0 0 0 0 0 0 0 0 0 0 0 0 0 0 0 0 0 0 0 0 0 0 0 0 0 0 0 0 0 0 0 0 0 0 0 0 0 0 0 0 0 0 0 0 0 0 0 0 0 0 0 0 0 0 0 0 0 0 0 0 0 0 0 0 0 0 0 0 0 0 0 0 0 0 0 0 0 0 0 0 0 0 0 0 0 0 0 0 0 0 0 0 0 0 0 0 0 0 0 0 0 0 0 0 0 0 0 0 0 0 0 0 0 0 0 0 0 0 0 0 0 0 0 0 0 0 0 0 0 0 0 0 0 0 0 0 0 0 0 0 0 0 0 0 0 0 0 0 0 0 0 0 0 0 0 0 0 0 0 0 0 0 0 0 0 0 0 0 0 0 0 0 0 0 0 0 0 0 0 0 0 0 0 0 0 0 0 0 0 0 0 0 0 0 0 0 0 0 0 0 0 0 0 0 0 0 0 0 0 0 0 0 0 0 0 0 0 0 0 0 0 0 0 0 0 0 0 0 0 0 0 0 0 0 0 0 0 0 0 0 0 0 0 0 0 0 0 0 0 0 0 0 0 0 0 0 0 0 0 0 0 0 0 0 0 0 0 0 0 -0.0239891 -0.017182 -0.00938421 -8.67362e-19 
0.02 0.02 0.02 0.02 0.02 0.02 0.02 0.02 0.02 0.02 0.02 0.02 0.02 0.02 0.02 0.02 0.02 0.02 0.02 0.02 0.02 0.02 0.02 0.02 0.02 0.02 0.02 0.02 0.02 0.02 0.02 0.02 0.02 0.02 0.02 0.02 0.02 0.02 0.02 0.02 0.02 0.02 0.02 0.02 0.02 0.02 0.02 0.02 0.02 0.02 0.02 0.02 0.0200001 0.0200001 0.0200001 0.0200001 0.0200001 0.0200001 0.0200001 0.0200002 0.0200002 0.0200002 0.0200003 0.0200003 0.0200003 0.0200004 0.0200005 0.0200005 0.0200006 0.0200007 0.0200008 0.0200009 0.020001 0.0200012 0.0200013 0.0200015 0.0200017 0.0200019 0.0200021 0.0200024 0.0200027 0.0200031 0.0200034 0.0200039 0.0200043 0.0200049 0.0200055 0.0200061 0.0200069 0.0200077 0.0200086 0.0200097 0.0200108 0.0200121 0.0200136 0.0200152 0.0200171 0.0200191 0.0200213 0.0200239 0.0200267 0.0200298 0.0200332 0.0200371 0.0200413 0.020046 0.0200511 0.0200568 0.0200631 0.0200699 0.0200774 0.0200856 0.0200946 0.0201044 0.020115 0.0201265 0.020139 0.0201524 0.0201669 0.0201824 0.020199 0.0202167 0.0202355 0.0202554 0.0202765 0.0202985 0.0203217 0.0203457 0.0203707 0.0203965 0.020423 0.0204501 0.0204776 0.0205054 0.0205331 0.0205606 0.0205877 0.0206142 0.0206399 0.0206649 0.0206888 0.0207116 0.0207332 0.0207534 0.0207721 0.0207891 0.0208045 0.0208181 0.0208299 0.02084 0.0208483 0.020855 0.02086 0.0208635 0.0208656 0.0208664 0.0208661 0.0208646 0.0208622 0.0208588 0.0208547 0.0208497 0.020844 0.0208376 0.0208304 0.0208225 0.0208136 0.0208038 0.020793 0.0207811 0.0207678 0.0207531 0.0207369 0.0207188 0.0206988 0.0206765 0.0206517 0.0206242 0.0205934 0.0205592 0.020521 0.0204785 0.020431 0.0203783 0.0203196 0.0202545 0.0201825 0.020103 0.0200154 0.019919 0.0198133 0.0196975 0.0195709 0.0194326 0.0192816 0.0191169 0.0189373 0.0187416 0.0185285 0.0182975 0.0180491 0.0177846 0.0175061 0.0172173 0.0169241 0.016627 0.0163153 0.0159638 0.0155568 0.0150922 0.0145752 0.014007 0.0133863 0.0127113 0.0119861 0.0112168 0.0104075 0.00955393 0.00865026 0.00767352 0.00661339 0.00546913 0.00424461 0.00294072 0.00156267 9.58832e-05 -0.00145823 -0.00309951 -0.00482762 -0.00669973 -0.00863106 -0.0106669 -0.012786 -0.0150084 -0.0174328 -0.0198312 -0.0221953 -0.0241213 -0.0269634 -0.0306194 -0.0333346 -0.0353831 -0.0373653 -0.0402002 -0.0475002 0 0 0 0 0 0 0 0 0 0 0 0 0 0 0 0 0 0 0 0 0 0 0 0 0 0 0 0 0 0 0 0 0 0 0 0 0 0 0 0 0 0 0 0 0 0 0 0 0 0 0 0 0 0 0 0 0 0 0 0 0 0 0 0 0 0 0 0 0 0 0 0 0 0 0 0 0 0 0 0 0 0 0 0 0 0 0 0 0 0 0 0 0 0 0 0 0 0 0 0 0 0 0 0 0 0 0 0 0 0 0 0 0 0 0 0 0 0 0 0 0 0 0 0 0 0 0 0 0 0 0 0 0 0 0 0 0 0 0 0 0 0 0 0 0 0 0 0 0 0 0 0 0 0 0 0 0 0 0 0 0 0 0 0 0 0 0 0 0 0 0 0 0 0 0 0 0 0 0 0 0 0 0 0 0 0 0 0 0 0 0 0 0 0 0 0 0 0 0 0 0 0 0 0 0 0 0 0 0 0 0 0 0 0 0 0 0 0 0 0 0 0 0 0 0 0 0 0 0 0 0 0 0 0 0 0 0 0 0 0 0 0 0 0 0 0 0 0 0 0 0 0 0 0 0 0 0 0 0 0 0 0 0 0 0 0 0 0 0 0 0 0 0 0 0 0 0 0 0 0 0 0 0 0 0 0 0 0 0 0 0 0 0 0 0 0 0 0 0 0 0 0 0 0 0 0 0 0 0 0 0 0 0 0 0 0 0 0 0 0 0 0 0 0 0 0 0 0 0 0 0 0 0 0 0 0 0 0 0 0 0 0 0 0 0 0 0 0 0 0 0 0 0 0 0 0 0 0 0 0 0 0 0 0 0 -0.0413268 -0.0435033 -0.0436698 -0.042812 -0.0406766 -0.0371993 -0.0327357 -0.0266009 -0.0194101 -0.010959 -6.50521e-19 
0.02 0.02 0.02 0.02 0.02 0.02 0.02 0.02 0.02 0.02 0.02 0.02 0.02 0.02 0.02 0.02 0.02 0.02 0.02 0.02 0.02 0.02 0.02 0.02 0.02 0.02 0.02 0.02 0.02 0.02 0.02 0.02 0.02 0.02 0.02 0.02 0.02 0.02 0.02 0.02 0.02 0.02 0.02 0.02 0.02 0.02 0.02 0.02 0.02 0.02 0.02 0.02 0.02 0.02 0.0200001 0.0200001 0.0200001 0.0200001 0.0200001 0.0200001 0.0200002 0.0200002 0.0200002 0.0200002 0.0200003 0.0200003 0.0200004 0.0200004 0.0200005 0.0200006 0.0200007 0.0200008 0.0200009 0.020001 0.0200012 0.0200013 0.0200015 0.0200017 0.0200019 0.0200022 0.0200025 0.0200028 0.0200031 0.0200035 0.020004 0.0200045 0.020005 0.0200056 0.0200063 0.0200071 0.020008 0.020009 0.0200101 0.0200114 0.0200128 0.0200143 0.0200161 0.020018 0.0200202 0.0200226 0.0200253 0.0200283 0.0200317 0.0200354 0.0200395 0.020044 0.020049 0.0200545 0.0200606 0.0200673 0.0200746 0.0200826 0.0200913 0.0201009 0.0201112 0.0201225 0.0201346 0.0201477 0.0201619 0.020177 0.0201933 0.0202106 0.020229 0.0202484 0.020269 0.0202906 0.0203132 0.0203368 0.0203613 0.0203865 0.0204125 0.020439 0.0204659 0.020493 0.0205202 0.0205472 0.0205737 0.0205996 0.0206247 0.020649 0.0206722 0.0206943 0.020715 0.0207344 0.0207523 0.0207686 0.0207832 0.020796 0.0208072 0.0208165 0.0208241 0.0208301 0.0208345 0.0208374 0.0208389 0.0208391 0.0208381 0.0208361 0.0208331 0.0208292 0.0208246 0.0208192 0.0208132 0.0208064 0.020799 0.0207908 0.0207818 0.020772 0.0207612 0.0207494 0.0207363 0.0207219 0.020706 0.0206884 0.0206689 0.0206473 0.0206232 0.0205964 0.0205666 0.0205332 0.020496 0.0204545 0.0204081 0.0203564 0.0202988 0.0202348 0.0201639 0.0200854 0.0199987 0.0199032 0.0197982 0.019683 0.0195568 0.0194187 0.0192677 0.0191028 0.0189228 0.0187265 0.018513 0.018282 0.0180348 0.017774 0.0175025 0.0172217 0.016931 0.0166267 0.0162977 0.0159326 0.0155194 0.0150545 0.0145381 0.0139701 0.0133501 0.0126786 0.0119589 0.0111948 0.0103867 0.00952609 0.00860303 0.00760963 0.00653725 0.00538438 0.00415286 0.00284125 0.00144744 -3.07264e-05 -0.00160163 -0.00326539 -0.00501743 -0.00686573 -0.00883115 -0.0108397 -0.0129632 -0.0151912 -0.0175491 -0.0199059 -0.0223019 -0.0246423 -0.0268604 -0.0301155 -0.0325199 -0.0347637 -0.0371459 -0.0383061 -0.043193 -0.0456848 -0.0474229 -0.0486364 -0.0493892 -0.0520345 -0.0606348 0 0 0 0 0 0 0 0 0 0 0 0 0 0 0 0 0 0 0 0 0 0 0 0 0 0 0 0 0 0 0 0 0 0 0 0 0 0 0 0 0 0 0 0 0 0 0 0 0 0 0 0 0 0 0 0 0 0 0 0 0 0 0 0 0 0 0 0 0 0 0 0 0 0 0 0 0 0 0 0 0 0 0 0 0 0 0 0 0 0 0 0 0 0 0 0 0 0 0 0 0 0 0 0 0 0 0 0 0 0 0 0 0 0 0 0 0 0 0 0 0 0 0 0 0 0 0 0 0 0 0 0 0 0 0 0 0 0 0 0 0 0 0 0 0 0 0 0 0 0 0 0 0 0 0 0 0 0 0 0 0 0 0 0 0 0 0 0 0 0 0 0 0 0 0 0 0 0 0 0 0 0 0 0 0 0 0 0 0 0 0 0 0 0 0 -0.0493615 -0.0522057 -0.0532194 -0.0536151 -0.0537366 -0.0537476 -0.0537044 -0.0536357 -0.0535571 -0.0534775 -0.0534017 -0.0533326 -0.0532716 -0.0532197 -0.0531771 -0.0531436 -0.053119 -0.0531027 -0.0530943 -0.053093 -0.0530981 -0.0531089 -0.0531245 -0.0531441 -0.0531666 -0.0531911 -0.0532166 -0.0532418 -0.0532658 -0.0532873 -0.0533053 -0.0533186 -0.0533265 -0.053328 -0.0533226 -0.0533098 -0.0532894 -0.0532615 -0.0532264 -0.0531846 -0.0531368 -0.0530841 -0.0530276 -0.0529685 -0.0529083 -0.0528483 -0.05279 -0.0527349 -0.0526843 -0.0526393 -0.052601 -0.0525703 -0.0525478 -0.0525341 -0.0525295 -0.0525344 -0.0525504 -0.0525835 -0.0526498 -0.0527885 -0.0531293 -0.0544814 -0.0634877 0 0 0 0 0 0 0 0 0 0 0 0 0 0 0 0 0 0 0 0 0 0 0 0 0 0 0 0 0 0 0 0 0 0 0 0 0 0 0 0 0 0 0 0 0 0 0 0 0 0 0 0 0 0 0 0 0 0 0 0 0 0 0 0 0 0 0 -0.0488686 -0.052241 -0.0533559 -0.0538381 -0.0540234 -0.0540472 -0.0539904 -0.0538842 -0.0537464 -0.0535872 -0.0534128 -0.0532273 -0.0530333 -0.0528321 -0.0526219 -0.0523939 -0.0521268 -0.0517632 -0.0512542 -0.0508235 -0.0504762 -0.050161 -0.0498628 -0.0495739 -0.0492905 -0.0490101 -0.048731 -0.048452 -0.0481723 -0.0478899 -0.0476006 -0.0472848 -0.0468042 -0.0459247 -0.0447103 -0.0443416 -0.0438556 -0.0427628 -0.0406985 -0.0374858 -0.033127 -0.0274611 -0.0205848 -0.0119043 2.1684e-19 