# vtk DataFile Version 2.0
iteration 1998
ASCII

DATASET STRUCTURED_POINTS
DIMENSIONS 621 64 1
ORIGIN 0 0 0
SPACING 0.00161031 0.00161031 0.00161031

POINT_DATA 39744
SCALARS P float 1
LOOKUP_TABLE default
0 0 0 0 0 0 0 0 0 0 0 0 0 0 0 0 0 0 0 0 0 0 0 0 0 0 0 0 0 0 0 0 0 0 0 0 0 0 0 0 0 0 0 0 0 0 0 0 0 0 0 0 0 0 0 0 0 0 0 0 0 0 0 0 0 0 0 0 0 0 0 0 0 0 0 0 0 0 0 0 0 0 0 0 0 0 0 0 0 0 0 0 0 0 0 0 0 0 0 0 0 0 0 0 0 0 0 0 0 0 0 0 0 0 0 0 0 0 0 0 0 0 0 0 0 0 0 0 0 0 0 0 0 0 0 0 0 0 0 0 0 0 0 0 0 0 0 0 0 0 0 0 0 0 0 0 0 0 0 0 0 0 0 0 0 0 0 0 0 0 0 0 0 0 0 0 0 0 0 0 0 0 0 0 0 0 0 0 0 0 0 0 0 0 0 0 0 0 0 0 0 0 0 0 0 0 0 0 0 0 0 0 0 0 0 0 0 0 0 0 0 0 0 0 0 0 0 0 0 0 0 0 0 0 0 0 0 0 0 0 0 0 0 0 0 0 0 0 0 0 0 0 0 0 0 0 0 0 0 0 0 0 0 0 0 0 0 0 0 0 0 0 0 0 0 0 0 0 0 0 0 0 0 0 0 0 0 0 0 0 0 0 0 0 0 0 0 0 0 0 0 0 0 0 0 0 0 0 0 0 0 0 0 0 0 0 0 0 0 0 0 0 0 0 0 0 0 0 0 0 0 0 0 0 0 0 0 0 0 0 0 0 0 0 0 0 0 0 0 0 0 0 0 0 0 0 0 0 0 0 0 0 0 0 0 0 0 0 0 0 0 0 0 0 0 0 0 0 0 0 0 0 0 0 0 0 0 0 0 0 0 0 0 0 0 0 0 0 0 0 0 0 0 0 0 0 0 0 0 0 0 0 0 0 0 0 0 0 0 0 0 0 0 0 0 0 0 0 0 0 0 0 0 0 0 0 0 0 0 0 0 0 0 0 0 0 0 0 0 0 0 0 0 0 0 0 0 0 0 0 0 0 0 0 0 0 0 0 0 0 0 0 0 0 0 0 0 0 0 0 0 0 0 0 0 0 0 0 0 0 0 0 0 0 0 0 0 0 0 0 0 0 0 0 0 0 0 0 0 0 0 0 0 0 0 0 0 0 0 0 0 0 0 0 0 0 0 0 0 0 0 0 0 0 0 0 0 0 0 0 0 0 0 0 0 0 0 0 0 0 0 0 0 0 0 0 0 0 0 0 0 0 0 0 0 0 0 0 0 0 0 0 0 0 0 0 0 0 0 0 0 0 0 0 0 0 0 0 0 0 0 0 0 0 0 0 0 0 0 0 0 0 0 0 0 0 0 0 0 0 0 0 0 0 0 0 0 0 0 0 0 
0.02 0.02 0.02 0.02 0.02 0.02 0.02 0.02 0.02 0.02 0.02 0.02 0.02 0.02 0.02 0.02 0.02 0.02 0.02 0.02 0.02 0.02 0.02 0.02 0.02 0.02 0.02 0.02 0.02 0.02 0.02 0.02 0.02 0.02 0.02 0.02 0.02 0.02 0.02 0.02 0.02 0.02 0.02 0.02 0.02 0.02 0.02 0.02 0.02 0.02 0.02 0.02 0.02 0.02 0.02 0.02 0.02 0.02 0.02 0.02 0.02 0.02 0.02 0.02 0.02 0.02 0.02 0.02 0.02 0.02 0.02 0.02 0.02 0.02 0.02 0.02 0.02 0.02 0.02 0.02 0.02 0.02 0.02 0.02 0.02 0.02 0.02 0.02 0.02 0.02 0.02 0.02 0.02 0.02 0.02 0.02 0.02 0.02 0.02 0.02 0.02 0.02 0.02 0.02 0.02 0.02 0.02 0.02 0.02 0.02 0.02 0.02 0.02 0.02 0.02 0.02 0.02 0.02 0.02 0.02 0.02 0.02 0.02 0.02 0.02 0.02 0.02 0.02 0.02 0.02 0.02 0.02 0.02 0.02 0.02 0.02 0.02 0.02 0.02 0.02 0.02 0.02 0.02 0.02 0.02 0.02 0.02 0.02 0.02 0.02 0.02 0.02 0.02 0.02 0.02 0.0199999 0.0199999 0.0199999 0.0199999 0.0199999 0.0199999 0.0199999 0.0199999 0.0199999 0.0199999 0.0199999 0.0199999 0.0199998 0.0199998 0.0199998 0.0199998 0.0199998 0.0199998 0.0199997 0.0199997 0.0199997 0.0199997 0.0199996 0.0199996 0.0199996 0.0199995 0.0199995 0.0199994 0.0199994 0.0199994 0.0199993 0.0199992 0.0199992 0.0199991 0.0199991 0.019999 0.0199989 0.0199988 0.0199987 0.0199987 0.0199986 0.0199985 0.0199983 0.0199982 0.0199981 0.019998 0.0199978 0.0199977 0.0199976 0.0199974 0.0199972 0.0199971 0.0199969 0.0199967 0.0199965 0.0199963 0.0199961 0.0199959 0.0199957 0.0199955 0.0199952 0.019995 0.0199948 0.0199945 0.0199943 0.0199941 0.0199938 0.0199936 0.0199934 0.0199931 0.0199929 0.0199927 0.0199925 0.0199923 0.0199921 0.019992 0.0199918 0.0199917 0.0199916 0.0199916 0.0199915 0.0199916 0.0199916 0.0199917 0.0199918 0.019992 0.0199923 0.0199926 0.019993 0.0199934 0.019994 0.0199946 0.0199953 0.0199961 0.019997 0.019998 0.0199991 0.0200003 0.0200016 0.0200031 0.0200047 0.0200064 0.0200083 0.0200103 0.0200124 0.0200148 0.0200173 0.0200199 0.0200228 0.0200258 0.020029 0.0200323 0.0200359 0.0200396 0.0200436 0.0200477 0.0200521 0.0200566 0.0200614 0.0200663 0.0200714 0.0200768 0.0200823 0.0200881 0.020094 0.0201002 0.0201065 0.020113 0.0201197 0.0201266 0.0201337 0.0201409 0.0201484 0.0201559 0.0201637 0.0201716 0.0201796 0.0201877 0.020196 0.0202044 0.0202129 0.0202214 0.0202301 0.0202388 0.0202476 0.0202564 0.0202653 0.0202741 0.020283 0.0202919 0.0203007 0.0203095 0.0203183 0.020327 0.0203356 0.0203441 0.0203525 0.0203608 0.020369 0.020377 0.0203849 0.0203926 0.0204001 0.0204074 0.0204145 0.0204215 0.0204282 0.0204346 0.0204409 0.0204469 0.0204527 0.0204582 0.0204635 0.0204685 0.0204733 0.0204778 0.020482 0.0204861 0.0204899 0.0204934 0.0204967 0.0204998 0.0205027 0.0205053 0.0205078 0.0205101 0.0205122 0.0205141 0.0205159 0.0205175 0.020519 0.0205204 0.0205217 0.0205229 0.020524 0.020525 0.020526 0.020527 0.0205279 0.0205288 0.0205298 0.0205307 0.0205317 0.0205326 0.0205337 0.0205347 0.0205359 0.0205371 0.0205383 0.0205396 0.020541 0.0205425 0.020544 0.0205456 0.0205473 0.0205491 0.0205509 0.0205528 0.0205548 0.0205568 0.0205589 0.020561 0.0205632 0.0205654 0.0205676 0.0205699 0.0205721 0.0205744 0.0205766 0.0205788 0.020581 0.0205832 0.0205853 0.0205873 0.0205893 0.0205912 0.020593 0.0205947 0.0205962 0.0205977 0.020599 0.0206001 0.0206011 0.0206019 0.0206025 0.0206029 0.020603 0.0206028 0.0206024 0.0206016 0.0206004 0.0205988 0.0205968 0.0205944 0.0205914 0.0205879 0.0205837 0.020579 0.0205736 0.0205676 0.0205611 0.0205546 0.0205469 0.0205391 0.0205307 0.0205215 0.0205115 0.0205006 0.0204888 0.020476 0.0204621 0.0204472 0.0204311 0.0204137 0.020395 0.0203747 0.0203529 0.0203292 0.020303 0.0202741 0.0202426 0.0202075 0.0201694 0.0201279 0.0200825 0.0200332 0.0199796 0.0199215 0.0198585 0.0197902 0.0197163 0.0196365 0.0195501 0.0194569 0.0193561 0.0192472 0.0191295 0.0190019 0.0188637 0.0187136 0.0185507 0.0183738 0.018182 0.0179745 0.0177512 0.017512 0.0172577 0.0169894 0.0167086 0.0164163 0.0161125 0.0157956 0.0154634 0.0151156 0.0147576 0.0144008 0.0140572 0.0137227 0.013371 0.0129958 0.0126878 0.0124349 0.0125268 0.0138708 0 0 0 0 0 0 0 0 0 0 0 0 0 0 0 0 0 0 0 0 0 0 0 0 0 0 0 0 0 0 0 0 0 0 0 0 0 0 0 0 0 0 0 0 0 0 0 0 0 0 0 0 0 0 0 0 0 0 0 0 0 0 0 0 0 0 0 0 0 0 0 0 0 0 0 0 0 0 0 0 0 0 0 0 0 0 0 0 0 0 0 0 0 0 0 0 0 0 0 0 0 0 0 0 0 0 0 0 0 0 0 0 0 0 0 0 0 0 0 0 0 0 0 0 0 0 0 0 0 0 0 0 0 0 0 0 0 0 0 0 0 0 
0.02 0.02 0.02 0.02 0.02 0.02 0.02 0.02 0.02 0.02 0.02 0.02 0.02 0.02 0.02 0.02 0.02 0.02 0.02 0.02 0.02 0.02 0.02 0.02 0.02 0.02 0.02 0.02 0.02 0.02 0.02 0.02 0.02 0.02 0.02 0.02 0.02 0.02 0.02 0.02 0.02 0.02 0.02 0.02 0.02 0.02 0.02 0.02 0.02 0.02 0.02 0.02 0.02 0.02 0.02 0.02 0.02 0.02 0.02 0.02 0.02 0.02 0.02 0.02 0.02 0.02 0.02 0.02 0.02 0.02 0.02 0.02 0.02 0.02 0.02 0.02 0.02 0.02 0.02 0.02 0.02 0.02 0.02 0.02 0.02 0.02 0.02 0.02 0.02 0.02 0.02 0.02 0.02 0.02 0.02 0.02 0.02 0.02 0.02 0.02 0.02 0.02 0.02 0.02 0.02 0.02 0.02 0.02 0.02 0.02 0.02 0.02 0.02 0.02 0.02 0.02 0.02 0.02 0.02 0.02 0.02 0.02 0.02 0.02 0.02 0.02 0.02 0.02 0.02 0.02 0.02 0.02 0.02 0.02 0.02 0.02 0.02 0.02 0.02 0.02 0.02 0.02 0.02 0.02 0.02 0.02 0.02 0.02 0.02 0.02 0.02 0.02 0.02 0.02 0.02 0.0199999 0.0199999 0.0199999 0.0199999 0.0199999 0.0199999 0.0199999 0.0199999 0.0199999 0.0199999 0.0199999 0.0199999 0.0199998 0.0199998 0.0199998 0.0199998 0.0199998 0.0199998 0.0199997 0.0199997 0.0199997 0.0199997 0.0199996 0.0199996 0.0199996 0.0199995 0.0199995 0.0199995 0.0199994 0.0199994 0.0199993 0.0199993 0.0199992 0.0199991 0.0199991 0.019999 0.0199989 0.0199988 0.0199988 0.0199987 0.0199986 0.0199985 0.0199984 0.0199983 0.0199981 0.019998 0.0199979 0.0199977 0.0199976 0.0199974 0.0199973 0.0199971 0.0199969 0.0199967 0.0199966 0.0199964 0.0199962 0.0199959 0.0199957 0.0199955 0.0199953 0.0199951 0.0199948 0.0199946 0.0199944 0.0199941 0.0199939 0.0199936 0.0199934 0.0199932 0.019993 0.0199927 0.0199925 0.0199924 0.0199922 0.019992 0.0199919 0.0199918 0.0199917 0.0199916 0.0199916 0.0199916 0.0199916 0.0199917 0.0199919 0.0199921 0.0199923 0.0199926 0.019993 0.0199934 0.019994 0.0199946 0.0199953 0.019996 0.0199969 0.0199979 0.019999 0.0200002 0.0200015 0.020003 0.0200045 0.0200063 0.0200081 0.0200101 0.0200123 0.0200146 0.020017 0.0200197 0.0200225 0.0200255 0.0200286 0.020032 0.0200355 0.0200393 0.0200432 0.0200473 0.0200516 0.0200561 0.0200608 0.0200658 0.0200709 0.0200762 0.0200817 0.0200874 0.0200933 0.0200994 0.0201057 0.0201122 0.0201189 0.0201258 0.0201328 0.0201401 0.0201475 0.020155 0.0201627 0.0201706 0.0201786 0.0201867 0.020195 0.0202034 0.0202118 0.0202204 0.020229 0.0202378 0.0202465 0.0202553 0.0202642 0.0202731 0.020282 0.0202908 0.0202997 0.0203085 0.0203173 0.020326 0.0203346 0.0203432 0.0203516 0.02036 0.0203682 0.0203762 0.0203841 0.0203919 0.0203994 0.0204068 0.020414 0.020421 0.0204278 0.0204343 0.0204406 0.0204467 0.0204526 0.0204582 0.0204635 0.0204686 0.0204735 0.0204781 0.0204824 0.0204865 0.0204904 0.0204941 0.0204975 0.0205006 0.0205036 0.0205063 0.0205089 0.0205112 0.0205134 0.0205154 0.0205173 0.020519 0.0205205 0.020522 0.0205233 0.0205246 0.0205257 0.0205268 0.0205278 0.0205288 0.0205298 0.0205307 0.0205317 0.0205326 0.0205336 0.0205345 0.0205355 0.0205366 0.0205377 0.0205388 0.02054 0.0205413 0.0205426 0.020544 0.0205455 0.020547 0.0205486 0.0205503 0.020552 0.0205538 0.0205557 0.0205576 0.0205596 0.0205616 0.0205636 0.0205657 0.0205678 0.0205699 0.020572 0.0205741 0.0205763 0.0205783 0.0205804 0.0205824 0.0205844 0.0205863 0.0205882 0.0205899 0.0205916 0.0205932 0.0205946 0.020596 0.0205972 0.0205982 0.0205991 0.0205997 0.0206002 0.0206004 0.0206004 0.0206001 0.0205995 0.0205986 0.0205973 0.0205956 0.0205935 0.0205909 0.0205879 0.0205843 0.0205802 0.0205757 0.0205707 0.0205652 0.0205591 0.0205528 0.0205459 0.0205384 0.0205301 0.020521 0.0205111 0.0205003 0.0204886 0.020476 0.0204623 0.0204475 0.0204316 0.0204145 0.0203959 0.0203759 0.0203543 0.020331 0.0203057 0.0202782 0.0202478 0.0202139 0.0201772 0.0201369 0.0200925 0.0200442 0.0199917 0.0199344 0.0198722 0.0198048 0.0197318 0.0196528 0.0195673 0.0194749 0.0193751 0.0192671 0.0191503 0.0190237 0.0188866 0.0187377 0.0185761 0.0184007 0.0182106 0.0180049 0.0177835 0.0175463 0.017294 0.0170277 0.0167486 0.0164577 0.0161547 0.0158378 0.0155043 0.0151533 0.0147887 0.0144201 0.0140568 0.0137013 0.0133575 0.0130378 0.0127529 0.0125411 0.0124993 0.0127727 0.0125286 0.0121018 0.0115179 0.0106701 0.00994517 0.0106009 0 0 0 0 0 0 0 0 0 0 0 0 0 0 0 0 0 0 0 0 0 0 0 0 0 0 0 0 0 0 0 0 0 0 0 0 0 0 0 0 0 0 0 0 0 0 0 0 0 0 0 0 0 0 0 0 0 0 0 0 0 0 0 0 0 0 0 0 0 0 0 0 0 0 0 0 0 0 0 0 0 0 0 0 0 0 0 0 0 0 0 0 0 0 0 0 0 0 0 0 0 0 0 0 0 0 0 0 0 0 0 0 0 0 0 0 0 0 0 0 0 0 0 0 0 0 0 0 0 0 0 0 0 0 0 0 
0.02 0.02 0.02 0.02 0.02 0.02 0.02 0.02 0.02 0.02 0.02 0.02 0.02 0.02 0.02 0.02 0.02 0.02 0.02 0.02 0.02 0.02 0.02 0.02 0.02 0.02 0.02 0.02 0.02 0.02 0.02 0.02 0.02 0.02 0.02 0.02 0.02 0.02 0.02 0.02 0.02 0.02 0.02 0.02 0.02 0.02 0.02 0.02 0.02 0.02 0.02 0.02 0.02 0.02 0.02 0.02 0.02 0.02 0.02 0.02 0.02 0.02 0.02 0.02 0.02 0.02 0.02 0.02 0.02 0.02 0.02 0.02 0.02 0.02 0.02 0.02 0.02 0.02 0.02 0.02 0.02 0.02 0.02 0.02 0.02 0.02 0.02 0.02 0.02 0.02 0.02 0.02 0.02 0.02 0.02 0.02 0.02 0.02 0.02 0.02 0.02 0.02 0.02 0.02 0.02 0.02 0.02 0.02 0.02 0.02 0.02 0.02 0.02 0.02 0.02 0.02 0.02 0.02 0.02 0.02 0.02 0.02 0.02 0.02 0.02 0.02 0.02 0.02 0.02 0.02 0.02 0.02 0.02 0.02 0.02 0.02 0.02 0.02 0.02 0.02 0.02 0.02 0.02 0.02 0.02 0.02 0.02 0.02 0.02 0.02 0.02 0.02 0.02 0.02 0.02 0.0199999 0.0199999 0.0199999 0.0199999 0.0199999 0.0199999 0.0199999 0.0199999 0.0199999 0.0199999 0.0199999 0.0199999 0.0199998 0.0199998 0.0199998 0.0199998 0.0199998 0.0199998 0.0199997 0.0199997 0.0199997 0.0199997 0.0199996 0.0199996 0.0199996 0.0199995 0.0199995 0.0199995 0.0199994 0.0199994 0.0199993 0.0199993 0.0199992 0.0199992 0.0199991 0.019999 0.0199989 0.0199989 0.0199988 0.0199987 0.0199986 0.0199985 0.0199984 0.0199983 0.0199982 0.019998 0.0199979 0.0199978 0.0199976 0.0199975 0.0199973 0.0199971 0.019997 0.0199968 0.0199966 0.0199964 0.0199962 0.019996 0.0199958 0.0199956 0.0199953 0.0199951 0.0199949 0.0199947 0.0199944 0.0199942 0.0199939 0.0199937 0.0199935 0.0199933 0.019993 0.0199928 0.0199926 0.0199924 0.0199923 0.0199921 0.019992 0.0199918 0.0199917 0.0199917 0.0199917 0.0199917 0.0199917 0.0199918 0.0199919 0.0199921 0.0199924 0.0199927 0.019993 0.0199935 0.019994 0.0199946 0.0199953 0.019996 0.0199969 0.0199979 0.019999 0.0200002 0.0200015 0.0200029 0.0200045 0.0200062 0.020008 0.02001 0.0200121 0.0200144 0.0200168 0.0200194 0.0200222 0.0200252 0.0200283 0.0200317 0.0200352 0.0200389 0.0200428 0.0200468 0.0200511 0.0200556 0.0200603 0.0200651 0.0200702 0.0200755 0.020081 0.0200866 0.0200925 0.0200986 0.0201049 0.0201113 0.020118 0.0201248 0.0201318 0.020139 0.0201463 0.0201538 0.0201615 0.0201693 0.0201773 0.0201854 0.0201936 0.0202019 0.0202104 0.0202189 0.0202275 0.0202362 0.020245 0.0202538 0.0202626 0.0202715 0.0202803 0.0202892 0.0202981 0.0203069 0.0203157 0.0203244 0.020333 0.0203416 0.0203501 0.0203584 0.0203667 0.0203748 0.0203827 0.0203905 0.0203981 0.0204056 0.0204128 0.0204199 0.0204267 0.0204333 0.0204397 0.0204459 0.0204518 0.0204575 0.020463 0.0204682 0.0204731 0.0204779 0.0204823 0.0204866 0.0204906 0.0204943 0.0204978 0.0205011 0.0205042 0.0205071 0.0205098 0.0205123 0.0205146 0.0205167 0.0205187 0.0205205 0.0205221 0.0205237 0.0205251 0.0205265 0.0205277 0.0205289 0.02053 0.0205311 0.0205321 0.0205331 0.0205341 0.0205351 0.0205361 0.0205371 0.0205381 0.0205392 0.0205403 0.0205414 0.0205426 0.0205438 0.0205451 0.0205464 0.0205478 0.0205493 0.0205508 0.0205524 0.020554 0.0205557 0.0205575 0.0205593 0.0205611 0.020563 0.0205649 0.0205668 0.0205688 0.0205708 0.0205727 0.0205747 0.0205766 0.0205786 0.0205805 0.0205823 0.0205841 0.0205859 0.0205875 0.0205891 0.0205906 0.020592 0.0205933 0.0205945 0.0205955 0.0205963 0.020597 0.0205975 0.0205978 0.0205978 0.0205976 0.0205971 0.0205963 0.0205951 0.0205937 0.0205918 0.0205896 0.0205869 0.0205839 0.0205804 0.0205766 0.0205723 0.0205675 0.0205625 0.020557 0.0205509 0.0205441 0.0205366 0.0205284 0.0205194 0.0205096 0.020499 0.0204874 0.0204749 0.0204614 0.0204468 0.0204311 0.0204142 0.0203959 0.0203762 0.0203549 0.0203318 0.0203068 0.0202797 0.0202503 0.0202181 0.0201827 0.0201435 0.0201006 0.0200536 0.020002 0.0199458 0.0198846 0.019818 0.0197458 0.0196676 0.0195829 0.0194912 0.0193921 0.0192849 0.0191689 0.0190432 0.018907 0.0187592 0.0185989 0.0184251 0.0182368 0.0180333 0.0178145 0.0175804 0.0173317 0.0170694 0.0167947 0.0165083 0.0162099 0.015897 0.0155665 0.0152164 0.0148492 0.0144731 0.014099 0.0137383 0.0134086 0.0131334 0.0128945 0.0127192 0.0126887 0.0126757 0.0124145 0.0120107 0.0113822 0.0106143 0.00987838 0.0093802 0.008412 0.00720794 0.00590039 0.00528865 0.00334574 0 0 0 0 0 0 0 0 0 0 0 0 0 0 0 0 0 0 0 0 0 0 0 0 0 0 0 0 0 0 0 0 0 0 0 0 0 0 0 0 0 0 0 0 0 0 0 0 0 0 0 0 0 0 0 0 0 0 0 0 0 0 0 0 0 0 0 0 0 0 0 0 0 0 0 0 0 0 0 0 0 0 0 0 0 0 0 0 0 0 0 0 0 0 0 0 0 0 0 0 0 0 0 0 0 0 0 0 0 0 0 0 0 0 0 0 0 0 0 0 0 0 0 0 0 0 0 0 0 0 4.33681e-19 
0.02 0.02 0.02 0.02 0.02 0.02 0.02 0.02 0.02 0.02 0.02 0.02 0.02 0.02 0.02 0.02 0.02 0.02 0.02 0.02 0.02 0.02 0.02 0.02 0.02 0.02 0.02 0.02 0.02 0.02 0.02 0.02 0.02 0.02 0.02 0.02 0.02 0.02 0.02 0.02 0.02 0.02 0.02 0.02 0.02 0.02 0.02 0.02 0.02 0.02 0.02 0.02 0.02 0.02 0.02 0.02 0.02 0.02 0.02 0.02 0.02 0.02 0.02 0.02 0.02 0.02 0.02 0.02 0.02 0.02 0.02 0.02 0.02 0.02 0.02 0.02 0.02 0.02 0.02 0.02 0.02 0.02 0.02 0.02 0.02 0.02 0.02 0.02 0.02 0.02 0.02 0.02 0.02 0.02 0.02 0.02 0.02 0.02 0.02 0.02 0.02 0.02 0.02 0.02 0.02 0.02 0.02 0.02 0.02 0.02 0.02 0.02 0.02 0.02 0.02 0.02 0.02 0.02 0.02 0.02 0.02 0.02 0.02 0.02 0.02 0.02 0.02 0.02 0.02 0.02 0.02 0.02 0.02 0.02 0.02 0.02 0.02 0.02 0.02 0.02 0.02 0.02 0.02 0.02 0.02 0.02 0.02 0.02 0.02 0.02 0.02 0.02 0.02 0.02 0.02 0.0199999 0.0199999 0.0199999 0.0199999 0.0199999 0.0199999 0.0199999 0.0199999 0.0199999 0.0199999 0.0199999 0.0199999 0.0199999 0.0199998 0.0199998 0.0199998 0.0199998 0.0199998 0.0199998 0.0199997 0.0199997 0.0199997 0.0199997 0.0199996 0.0199996 0.0199996 0.0199995 0.0199995 0.0199994 0.0199994 0.0199993 0.0199993 0.0199992 0.0199992 0.0199991 0.019999 0.019999 0.0199989 0.0199988 0.0199987 0.0199986 0.0199985 0.0199984 0.0199983 0.0199982 0.0199981 0.0199979 0.0199978 0.0199977 0.0199975 0.0199974 0.0199972 0.019997 0.0199968 0.0199967 0.0199965 0.0199963 0.0199961 0.0199959 0.0199956 0.0199954 0.0199952 0.019995 0.0199947 0.0199945 0.0199943 0.019994 0.0199938 0.0199936 0.0199934 0.0199931 0.0199929 0.0199927 0.0199925 0.0199924 0.0199922 0.0199921 0.0199919 0.0199919 0.0199918 0.0199918 0.0199918 0.0199918 0.0199919 0.019992 0.0199922 0.0199925 0.0199928 0.0199931 0.0199936 0.0199941 0.0199947 0.0199953 0.0199961 0.0199969 0.0199979 0.019999 0.0200001 0.0200014 0.0200029 0.0200044 0.0200061 0.0200079 0.0200098 0.0200119 0.0200142 0.0200166 0.0200192 0.020022 0.0200249 0.020028 0.0200313 0.0200348 0.0200384 0.0200423 0.0200463 0.0200505 0.020055 0.0200596 0.0200644 0.0200694 0.0200747 0.0200801 0.0200857 0.0200915 0.0200975 0.0201037 0.0201101 0.0201167 0.0201235 0.0201304 0.0201376 0.0201449 0.0201523 0.0201599 0.0201677 0.0201756 0.0201837 0.0201918 0.0202001 0.0202085 0.020217 0.0202256 0.0202342 0.0202429 0.0202517 0.0202605 0.0202693 0.0202782 0.020287 0.0202959 0.0203047 0.0203135 0.0203222 0.0203308 0.0203394 0.0203479 0.0203563 0.0203646 0.0203727 0.0203807 0.0203886 0.0203962 0.0204037 0.0204111 0.0204182 0.0204251 0.0204318 0.0204383 0.0204446 0.0204507 0.0204565 0.0204621 0.0204674 0.0204725 0.0204774 0.020482 0.0204864 0.0204905 0.0204944 0.0204981 0.0205016 0.0205048 0.0205079 0.0205107 0.0205134 0.0205158 0.0205181 0.0205202 0.0205222 0.020524 0.0205257 0.0205273 0.0205288 0.0205302 0.0205315 0.0205327 0.0205339 0.020535 0.0205361 0.0205371 0.0205382 0.0205392 0.0205402 0.0205413 0.0205424 0.0205434 0.0205446 0.0205457 0.0205469 0.0205481 0.0205494 0.0205508 0.0205521 0.0205536 0.020555 0.0205566 0.0205581 0.0205597 0.0205614 0.0205631 0.0205648 0.0205665 0.0205683 0.02057 0.0205718 0.0205736 0.0205753 0.0205771 0.0205788 0.0205805 0.0205821 0.0205837 0.0205852 0.0205866 0.020588 0.0205893 0.0205904 0.0205915 0.0205924 0.0205932 0.0205938 0.0205942 0.0205944 0.0205945 0.0205943 0.0205938 0.0205931 0.0205921 0.0205908 0.0205892 0.0205873 0.0205851 0.0205825 0.0205796 0.0205764 0.0205728 0.0205688 0.0205645 0.0205596 0.0205541 0.020548 0.0205413 0.0205339 0.0205258 0.0205169 0.0205072 0.0204967 0.0204853 0.020473 0.0204596 0.0204453 0.0204298 0.0204131 0.0203951 0.0203757 0.0203548 0.0203321 0.0203076 0.020281 0.020252 0.0202206 0.0201863 0.0201488 0.0201075 0.020062 0.0200121 0.0199575 0.0198978 0.0198327 0.0197618 0.0196849 0.0196015 0.0195111 0.0194132 0.0193073 0.0191925 0.0190683 0.0189336 0.0187875 0.0186292 0.0184576 0.0182719 0.0180716 0.0178564 0.0176265 0.0173825 0.0171256 0.0168566 0.0165764 0.016284 0.0159768 0.0156508 0.0153035 0.0149369 0.0145597 0.0141864 0.0138353 0.0135275 0.0132872 0.0131088 0.0129633 0.0128856 0.0127394 0.0124648 0.0120194 0.0113909 0.0106643 0.00993312 0.00918212 0.0081884 0.00703847 0.00577599 0.00460896 0.00307528 0.0013104 -0.000745929 -0.00242152 0 0 0 0 0 0 0 0 0 0 0 0 0 0 0 0 0 0 0 0 0 0 0 0 0 0 0 0 0 0 0 0 0 0 0 0 0 0 0 0 0 0 0 0 0 0 0 0 0 0 0 0 0 0 0 0 0 0 0 0 0 0 0 0 0 0 0 0 0 0 0 0 0 0 0 0 0 0 0 0 0 0 0 0 0 0 0 0 0 0 0 0 0 0 0 0 0 0 0 0 0 0 0 0 0 0 0 0 0 0 0 0 0 0 0 0 0 0 0 0 0 0 0 0 0 0 0 -1.30104e-18 
0.02 0.02 0.02 0.02 0.02 0.02 0.02 0.02 0.02 0.02 0.02 0.02 0.02 0.02 0.02 0.02 0.02 0.02 0.02 0.02 0.02 0.02 0.02 0.02 0.02 0.02 0.02 0.02 0.02 0.02 0.02 0.02 0.02 0.02 0.02 0.02 0.02 0.02 0.02 0.02 0.02 0.02 0.02 0.02 0.02 0.02 0.02 0.02 0.02 0.02 0.02 0.02 0.02 0.02 0.02 0.02 0.02 0.02 0.02 0.02 0.02 0.02 0.02 0.02 0.02 0.02 0.02 0.02 0.02 0.02 0.02 0.02 0.02 0.02 0.02 0.02 0.02 0.02 0.02 0.02 0.02 0.02 0.02 0.02 0.02 0.02 0.02 0.02 0.02 0.02 0.02 0.02 0.02 0.02 0.02 0.02 0.02 0.02 0.02 0.02 0.02 0.02 0.02 0.02 0.02 0.02 0.02 0.02 0.02 0.02 0.02 0.02 0.02 0.02 0.02 0.02 0.02 0.02 0.02 0.02 0.02 0.02 0.02 0.02 0.02 0.02 0.02 0.02 0.02 0.02 0.02 0.02 0.02 0.02 0.02 0.02 0.02 0.02 0.02 0.02 0.02 0.02 0.02 0.02 0.02 0.02 0.02 0.02 0.02 0.02 0.02 0.02 0.02 0.02 0.02 0.02 0.0199999 0.0199999 0.0199999 0.0199999 0.0199999 0.0199999 0.0199999 0.0199999 0.0199999 0.0199999 0.0199999 0.0199999 0.0199998 0.0199998 0.0199998 0.0199998 0.0199998 0.0199998 0.0199997 0.0199997 0.0199997 0.0199997 0.0199996 0.0199996 0.0199996 0.0199995 0.0199995 0.0199995 0.0199994 0.0199994 0.0199993 0.0199993 0.0199992 0.0199991 0.0199991 0.019999 0.0199989 0.0199988 0.0199988 0.0199987 0.0199986 0.0199985 0.0199984 0.0199982 0.0199981 0.019998 0.0199979 0.0199977 0.0199976 0.0199974 0.0199973 0.0199971 0.0199969 0.0199967 0.0199965 0.0199964 0.0199962 0.0199959 0.0199957 0.0199955 0.0199953 0.0199951 0.0199948 0.0199946 0.0199944 0.0199942 0.0199939 0.0199937 0.0199935 0.0199933 0.0199931 0.0199929 0.0199927 0.0199925 0.0199923 0.0199922 0.0199921 0.019992 0.0199919 0.0199919 0.0199919 0.019992 0.019992 0.0199922 0.0199924 0.0199926 0.0199929 0.0199932 0.0199937 0.0199942 0.0199948 0.0199954 0.0199962 0.019997 0.019998 0.019999 0.0200002 0.0200014 0.0200028 0.0200044 0.020006 0.0200078 0.0200097 0.0200118 0.020014 0.0200164 0.020019 0.0200217 0.0200246 0.0200276 0.0200309 0.0200343 0.0200379 0.0200417 0.0200457 0.0200499 0.0200542 0.0200588 0.0200636 0.0200685 0.0200737 0.020079 0.0200846 0.0200903 0.0200963 0.0201024 0.0201087 0.0201152 0.0201219 0.0201288 0.0201359 0.0201431 0.0201505 0.020158 0.0201657 0.0201735 0.0201815 0.0201896 0.0201978 0.0202062 0.0202146 0.0202231 0.0202317 0.0202404 0.0202491 0.0202579 0.0202667 0.0202755 0.0202843 0.0202931 0.0203019 0.0203107 0.0203194 0.0203281 0.0203367 0.0203452 0.0203536 0.0203619 0.0203701 0.0203782 0.0203861 0.0203938 0.0204014 0.0204088 0.020416 0.0204231 0.0204299 0.0204365 0.0204429 0.0204491 0.0204551 0.0204608 0.0204663 0.0204716 0.0204766 0.0204814 0.020486 0.0204903 0.0204944 0.0204983 0.020502 0.0205054 0.0205086 0.0205117 0.0205145 0.0205172 0.0205197 0.020522 0.0205241 0.0205261 0.020528 0.0205298 0.0205314 0.0205329 0.0205344 0.0205357 0.020537 0.0205382 0.0205394 0.0205406 0.0205417 0.0205428 0.0205438 0.0205449 0.020546 0.0205471 0.0205482 0.0205493 0.0205505 0.0205516 0.0205528 0.0205541 0.0205553 0.0205567 0.020558 0.0205594 0.0205608 0.0205622 0.0205637 0.0205652 0.0205667 0.0205682 0.0205697 0.0205713 0.0205728 0.0205743 0.0205758 0.0205773 0.0205788 0.0205802 0.0205815 0.0205829 0.0205841 0.0205853 0.0205863 0.0205873 0.0205882 0.020589 0.0205896 0.0205901 0.0205904 0.0205906 0.0205906 0.0205904 0.0205899 0.0205893 0.0205884 0.0205873 0.020586 0.0205844 0.0205825 0.0205804 0.020578 0.0205752 0.0205722 0.0205688 0.0205649 0.0205605 0.0205556 0.0205502 0.0205442 0.0205375 0.0205301 0.0205221 0.0205133 0.0205038 0.0204934 0.0204822 0.02047 0.020457 0.0204429 0.0204277 0.0204113 0.0203937 0.0203747 0.0203542 0.020332 0.020308 0.020282 0.0202537 0.020223 0.0201895 0.0201531 0.0201132 0.0200695 0.0200215 0.0199689 0.0199113 0.0198483 0.0197796 0.0197048 0.0196234 0.0195351 0.0194393 0.0193354 0.0192229 0.0191008 0.0189685 0.0188251 0.0186695 0.0185011 0.0183191 0.0181229 0.0179124 0.0176878 0.0174497 0.0171992 0.0169371 0.016664 0.0163787 0.0160784 0.015759 0.0154179 0.0150579 0.0146894 0.0143291 0.0139977 0.0137176 0.013508 0.0133648 0.0132436 0.0130912 0.0129038 0.0125694 0.0120872 0.0114716 0.0107473 0.0099717 0.00910058 0.00808494 0.00692412 0.00568019 0.0043764 0.00286345 0.0012225 -0.000708641 -0.00274488 -0.00512061 -0.00791033 -0.0109497 -0.0135338 0 0 0 0 0 0 0 0 0 0 0 0 0 0 0 0 0 0 0 0 0 0 0 0 0 0 0 0 0 0 0 0 0 0 0 0 0 0 0 0 0 0 0 0 0 0 0 0 0 0 0 0 0 0 0 0 0 0 0 0 0 0 0 0 0 0 0 0 0 0 0 0 0 0 0 0 0 0 0 0 0 0 0 0 0 0 0 0 0 0 0 0 0 0 0 0 0 0 0 0 0 0 0 0 0 0 0 0 0 0 0 0 0 0 0 0 0 0 0 0 0 0 0 -1.30104e-18 
0.02 0.02 0.02 0.02 0.02 0.02 0.02 0.02 0.02 0.02 0.02 0.02 0.02 0.02 0.02 0.02 0.02 0.02 0.02 0.02 0.02 0.02 0.02 0.02 0.02 0.02 0.02 0.02 0.02 0.02 0.02 0.02 0.02 0.02 0.02 0.02 0.02 0.02 0.02 0.02 0.02 0.02 0.02 0.02 0.02 0.02 0.02 0.02 0.02 0.02 0.02 0.02 0.02 0.02 0.02 0.02 0.02 0.02 0.02 0.02 0.02 0.02 0.02 0.02 0.02 0.02 0.02 0.02 0.02 0.02 0.02 0.02 0.02 0.02 0.02 0.02 0.02 0.02 0.02 0.02 0.02 0.02 0.02 0.02 0.02 0.02 0.02 0.02 0.02 0.02 0.02 0.02 0.02 0.02 0.02 0.02 0.02 0.02 0.02 0.02 0.02 0.02 0.02 0.02 0.02 0.02 0.02 0.02 0.02 0.02 0.02 0.02 0.02 0.02 0.02 0.02 0.02 0.02 0.02 0.02 0.02 0.02 0.02 0.02 0.02 0.02 0.02 0.02 0.02 0.02 0.02 0.02 0.02 0.02 0.02 0.02 0.02 0.02 0.02 0.02 0.02 0.02 0.02 0.02 0.02 0.02 0.02 0.02 0.02 0.02 0.02 0.02 0.02 0.02 0.02 0.02 0.0199999 0.0199999 0.0199999 0.0199999 0.0199999 0.0199999 0.0199999 0.0199999 0.0199999 0.0199999 0.0199999 0.0199999 0.0199999 0.0199998 0.0199998 0.0199998 0.0199998 0.0199998 0.0199997 0.0199997 0.0199997 0.0199997 0.0199996 0.0199996 0.0199996 0.0199996 0.0199995 0.0199995 0.0199994 0.0199994 0.0199993 0.0199993 0.0199992 0.0199992 0.0199991 0.019999 0.019999 0.0199989 0.0199988 0.0199987 0.0199986 0.0199985 0.0199984 0.0199983 0.0199982 0.0199981 0.0199979 0.0199978 0.0199976 0.0199975 0.0199973 0.0199972 0.019997 0.0199968 0.0199966 0.0199965 0.0199963 0.0199961 0.0199959 0.0199956 0.0199954 0.0199952 0.019995 0.0199948 0.0199945 0.0199943 0.0199941 0.0199939 0.0199936 0.0199934 0.0199932 0.019993 0.0199929 0.0199927 0.0199925 0.0199924 0.0199923 0.0199922 0.0199921 0.0199921 0.0199921 0.0199921 0.0199922 0.0199924 0.0199925 0.0199928 0.0199931 0.0199934 0.0199938 0.0199943 0.0199949 0.0199955 0.0199963 0.0199971 0.019998 0.0199991 0.0200002 0.0200015 0.0200028 0.0200043 0.020006 0.0200077 0.0200096 0.0200117 0.0200138 0.0200162 0.0200187 0.0200214 0.0200242 0.0200272 0.0200304 0.0200338 0.0200373 0.020041 0.020045 0.0200491 0.0200534 0.0200579 0.0200626 0.0200674 0.0200725 0.0200778 0.0200833 0.0200889 0.0200948 0.0201008 0.0201071 0.0201135 0.0201201 0.0201269 0.0201339 0.020141 0.0201483 0.0201557 0.0201633 0.0201711 0.020179 0.020187 0.0201951 0.0202034 0.0202118 0.0202202 0.0202287 0.0202373 0.020246 0.0202547 0.0202635 0.0202723 0.020281 0.0202898 0.0202986 0.0203074 0.0203161 0.0203248 0.0203334 0.0203419 0.0203504 0.0203587 0.020367 0.0203751 0.020383 0.0203909 0.0203986 0.0204061 0.0204134 0.0204206 0.0204275 0.0204343 0.0204408 0.0204472 0.0204533 0.0204592 0.0204649 0.0204703 0.0204756 0.0204806 0.0204853 0.0204899 0.0204942 0.0204983 0.0205022 0.0205059 0.0205093 0.0205126 0.0205157 0.0205186 0.0205213 0.0205238 0.0205262 0.0205284 0.0205304 0.0205324 0.0205342 0.0205359 0.0205375 0.020539 0.0205404 0.0205418 0.0205431 0.0205443 0.0205455 0.0205466 0.0205478 0.0205489 0.0205499 0.020551 0.0205521 0.0205532 0.0205543 0.0205554 0.0205565 0.0205576 0.0205588 0.0205599 0.0205611 0.0205623 0.0205635 0.0205648 0.020566 0.0205673 0.0205685 0.0205698 0.0205711 0.0205724 0.0205736 0.0205748 0.0205761 0.0205772 0.0205784 0.0205795 0.0205805 0.0205815 0.0205825 0.0205833 0.0205841 0.0205848 0.0205853 0.0205858 0.0205861 0.0205864 0.0205864 0.0205864 0.0205861 0.0205857 0.0205852 0.0205844 0.0205835 0.0205823 0.020581 0.0205794 0.0205776 0.0205755 0.0205731 0.0205705 0.0205674 0.0205639 0.02056 0.0205556 0.0205507 0.0205453 0.0205393 0.0205326 0.0205253 0.0205174 0.0205087 0.0204993 0.0204891 0.0204781 0.0204662 0.0204533 0.0204395 0.0204247 0.0204087 0.0203915 0.020373 0.020353 0.0203314 0.0203081 0.0202828 0.0202553 0.0202255 0.020193 0.0201576 0.020119 0.0200768 0.0200307 0.0199802 0.0199249 0.0198644 0.0197984 0.0197263 0.0196478 0.0195624 0.0194696 0.0193689 0.0192595 0.0191407 0.0190118 0.018872 0.0187204 0.0185563 0.018379 0.018188 0.0179833 0.017765 0.0175338 0.0172906 0.0170363 0.0167711 0.0164941 0.0162025 0.015893 0.0155641 0.0152196 0.0148708 0.0145352 0.0142322 0.013979 0.0137858 0.0136467 0.0135245 0.0133603 0.0130951 0.0127046 0.0121918 0.011567 0.0108319 0.00998504 0.0090583 0.00800403 0.00682809 0.00556303 0.00419333 0.00266 0.000980152 -0.000857457 -0.00298794 -0.00507364 -0.00773688 -0.0106659 -0.0138744 -0.0172336 -0.0222784 -0.0245277 0 0 0 0 0 0 0 0 0 0 0 0 0 0 0 0 0 0 0 0 0 0 0 0 0 0 0 0 0 0 0 0 0 0 0 0 0 0 0 0 0 0 0 0 0 0 0 0 0 0 0 0 0 0 0 0 0 0 0 0 0 0 0 0 0 0 0 0 0 0 0 0 0 0 0 0 0 0 0 0 0 0 0 0 0 0 0 0 0 0 0 0 0 0 0 0 0 0 0 0 0 0 0 0 0 0 0 0 0 0 0 0 0 0 0 0 0 0 0 -0.00424001 2.1684e-19 