# vtk DataFile Version 2.0
iteration 2349
ASCII

DATASET STRUCTURED_POINTS
DIMENSIONS 621 64 1
ORIGIN 0 0 0
SPACING 0.00161031 0.00161031 0.00161031

POINT_DATA 39744
SCALARS P float 1
LOOKUP_TABLE default
0 0 0 0 0 0 0 0 0 0 0 0 0 0 0 0 0 0 0 0 0 0 0 0 0 0 0 0 0 0 0 0 0 0 0 0 0 0 0 0 0 0 0 0 0 0 0 0 0 0 0 0 0 0 0 0 0 0 0 0 0 0 0 0 0 0 0 0 0 0 0 0 0 0 0 0 0 0 0 0 0 0 0 0 0 0 0 0 0 0 0 0 0 0 0 0 0 0 0 0 0 0 0 0 0 0 0 0 0 0 0 0 0 0 0 0 0 0 0 0 0 0 0 0 0 0 0 0 0 0 0 0 0 0 0 0 0 0 0 0 0 0 0 0 0 0 0 0 0 0 0 0 0 0 0 0 0 0 0 0 0 0 0 0 0 0 0 0 0 0 0 0 0 0 0 0 0 0 0 0 0 0 0 0 0 0 0 0 0 0 0 0 0 0 0 0 0 0 0 0 0 0 0 0 0 0 0 0 0 0 0 0 0 0 0 0 0 0 0 0 0 0 0 0 0 0 0 0 0 0 0 0 0 0 0 0 0 0 0 0 0 0 0 0 0 0 0 0 0 0 0 0 0 0 0 0 0 0 0 0 0 0 0 0 0 0 0 0 0 0 0 0 0 0 0 0 0 0 0 0 0 0 0 0 0 0 0 0 0 0 0 0 0 0 0 0 0 0 0 0 0 0 0 0 0 0 0 0 0 0 0 0 0 0 0 0 0 0 0 0 0 0 0 0 0 0 0 0 0 0 0 0 0 0 0 0 0 0 0 0 0 0 0 0 0 0 0 0 0 0 0 0 0 0 0 0 0 0 0 0 0 0 0 0 0 0 0 0 0 0 0 0 0 0 0 0 0 0 0 0 0 0 0 0 0 0 0 0 0 0 0 0 0 0 0 0 0 0 0 0 0 0 0 0 0 0 0 0 0 0 0 0 0 0 0 0 0 0 0 0 0 0 0 0 0 0 0 0 0 0 0 0 0 0 0 0 0 0 0 0 0 0 0 0 0 0 0 0 0 0 0 0 0 0 0 0 0 0 0 0 0 0 0 0 0 0 0 0 0 0 0 0 0 0 0 0 0 0 0 0 0 0 0 0 0 0 0 0 0 0 0 0 0 0 0 0 0 0 0 0 0 0 0 0 0 0 0 0 0 0 0 0 0 0 0 0 0 0 0 0 0 0 0 0 0 0 0 0 0 0 0 0 0 0 0 0 0 0 0 0 0 0 0 0 0 0 0 0 0 0 0 0 0 0 0 0 0 0 0 0 0 0 0 0 0 0 0 0 0 0 0 0 0 0 0 0 0 0 0 0 0 0 0 0 0 0 0 0 0 0 0 0 0 0 0 0 0 0 0 0 0 0 0 0 0 0 0 0 0 0 0 0 0 0 0 0 0 0 0 0 0 
0.0217421 0.0217849 0.0217898 0.0218043 0.0218215 0.0218388 0.0218554 0.0218709 0.0218851 0.0218979 0.0219092 0.021919 0.0219273 0.021934 0.0219393 0.0219429 0.0219451 0.0219457 0.0219448 0.0219423 0.0219384 0.0219331 0.0219262 0.021918 0.0219083 0.0218973 0.0218849 0.0218711 0.0218561 0.0218397 0.0218221 0.0218033 0.0217833 0.0217621 0.0217397 0.0217162 0.0216917 0.021666 0.0216394 0.0216118 0.0215832 0.0215537 0.0215233 0.0214921 0.0214601 0.0214274 0.021394 0.0213599 0.0213253 0.0212901 0.0212544 0.0212183 0.0211818 0.0211451 0.0211081 0.0210709 0.0210336 0.0209962 0.0209589 0.0209217 0.0208846 0.0208478 0.0208113 0.0207751 0.0207394 0.0207041 0.0206695 0.0206354 0.020602 0.0205694 0.0205376 0.0205065 0.0204764 0.0204472 0.0204189 0.0203917 0.0203654 0.0203402 0.020316 0.0202929 0.0202709 0.02025 0.0202301 0.0202113 0.0201936 0.0201769 0.0201612 0.0201465 0.0201329 0.0201201 0.0201083 0.0200974 0.0200873 0.0200781 0.0200696 0.0200618 0.0200548 0.0200484 0.0200426 0.0200374 0.0200327 0.0200285 0.0200247 0.0200214 0.0200185 0.0200159 0.0200136 0.0200116 0.0200098 0.0200083 0.020007 0.0200059 0.0200049 0.0200041 0.0200034 0.0200028 0.0200023 0.0200019 0.0200015 0.0200012 0.020001 0.0200008 0.0200006 0.0200005 0.0200004 0.0200003 0.0200002 0.0200002 0.0200001 0.0200001 0.0200001 0.0200001 0.02 0.02 0.02 0.02 0.02 0.02 0.02 0.02 0.02 0.02 0.02 0.02 0.02 0.02 0.02 0.02 0.02 0.02 0.02 0.02 0.02 0.02 0.02 0.02 0.02 0.02 0.02 0.02 0.02 0.02 0.02 0.02 0.02 0.02 0.02 0.02 0.02 0.02 0.02 0.02 0.02 0.02 0.02 0.02 0.02 0.02 0.02 0.02 0.02 0.02 0.02 0.02 0.02 0.02 0.02 0.02 0.02 0.02 0.02 0.02 0.02 0.02 0.02 0.02 0.02 0.02 0.02 0.02 0.02 0.02 0.02 0.02 0.02 0.02 0.02 0.02 0.02 0.02 0.02 0.02 0.02 0.0200001 0.0200001 0.0200001 0.0200001 0.0200001 0.0200001 0.0200001 0.0200001 0.0200001 0.0200001 0.0200001 0.0200001 0.0200001 0.0200001 0.0200001 0.0200001 0.0200001 0.0200002 0.0200002 0.0200002 0.0200002 0.0200002 0.0200002 0.0200002 0.0200002 0.0200002 0.0200002 0.0200002 0.0200002 0.0200002 0.0200002 0.0200002 0.0200002 0.0200002 0.0200002 0.0200002 0.0200002 0.0200001 0.0200001 0.0200001 0.0200001 0.02 0.02 0.0199999 0.0199999 0.0199998 0.0199997 0.0199997 0.0199996 0.0199995 0.0199994 0.0199992 0.0199991 0.0199989 0.0199988 0.0199986 0.0199984 0.0199981 0.0199979 0.0199976 0.0199973 0.019997 0.0199967 0.0199963 0.0199959 0.0199955 0.019995 0.0199945 0.019994 0.0199935 0.0199929 0.0199922 0.0199915 0.0199908 0.0199901 0.0199892 0.0199884 0.0199875 0.0199865 0.0199855 0.0199844 0.0199833 0.0199821 0.0199809 0.0199796 0.0199782 0.0199768 0.0199753 0.0199737 0.0199721 0.0199704 0.0199686 0.0199668 0.0199649 0.0199629 0.0199608 0.0199587 0.0199565 0.0199542 0.0199519 0.0199495 0.019947 0.0199444 0.0199418 0.0199391 0.0199363 0.0199335 0.0199305 0.0199275 0.0199245 0.0199214 0.0199182 0.0199149 0.0199116 0.0199082 0.0199048 0.0199013 0.0198977 0.0198942 0.0198905 0.0198868 0.0198831 0.0198793 0.0198755 0.0198717 0.0198678 0.0198639 0.01986 0.0198561 0.0198521 0.0198481 0.0198441 0.0198401 0.0198361 0.0198321 0.0198281 0.0198241 0.0198201 0.0198161 0.0198121 0.0198081 0.0198042 0.0198003 0.0197963 0.0197924 0.0197886 0.0197847 0.0197809 0.0197771 0.0197733 0.0197695 0.0197658 0.0197621 0.0197584 0.0197547 0.0197511 0.0197474 0.0197438 0.0197402 0.0197366 0.019733 0.0197294 0.0197258 0.0197222 0.0197186 0.019715 0.0197113 0.0197076 0.0197039 0.0197002 0.0196964 0.0196926 0.0196887 0.0196848 0.0196807 0.0196767 0.0196725 0.0196683 0.0196639 0.0196595 0.019655 0.0196504 0.0196456 0.0196408 0.0196358 0.0196307 0.0196255 0.0196201 0.0196146 0.019609 0.0196032 0.0195973 0.0195912 0.019585 0.0195786 0.0195721 0.0195657 0.019559 0.0195523 0.0195456 0.0195387 0.0195318 0.0195248 0.0195177 0.0195106 0.0195033 0.019496 0.0194886 0.0194812 0.0194737 0.0194661 0.0194586 0.019451 0.0194434 0.0194358 0.0194282 0.0194207 0.0194131 0.0194056 0.0193981 0.0193907 0.0193833 0.019376 0.0193688 0.0193616 0.0193546 0.0193477 0.0193409 0.0193342 0.0193276 0.0193212 0.0193149 0.0193087 0.0193028 0.019297 0.0192913 0.0192859 0.0192806 0.0192755 0.0192706 0.019266 0.0192615 0.0192573 0.0192532 0.0192495 0.0192459 0.0192426 0.0192396 0.0192369 0.0192344 0.0192323 0.0192304 0.0192289 0.0192277 0.0192269 0.0192265 0.0192264 0.0192268 0.0192277 0.019229 0.0192307 0.019233 0.0192358 0.0192392 0.0192431 0.0192477 0.0192528 0.0192586 0.0192651 0.0192722 0.01928 0.0192885 0.0192977 0.0193077 0.0193184 0.0193298 0.019342 0.0193549 0.0193685 0.0193829 0.0193981 0.0194139 0.0194305 0.0194478 0.0194659 0.0194846 0.0195039 0.019524 0.0195446 0.0195659 0.0195877 0.0196101 0.019633 0.0196563 0.01968 0.0197041 0.0197284 0.0197529 0.0197775 0.0198021 0.0198266 0.0198509 0.0198751 0.0198988 0.0199222 0.0199451 0.0199674 0.0199892 0.0200104 0.020031 0.020051 0.0200704 0.0200892 0.0201075 0.020125 0.0201418 0.0201575 0.020172 0.0201847 0.0201951 0.0201978 0.0201946 0.0201855 0.0201706 0.0201489 0.020119 0.0200791 0.0200275 0.0199621 0.0198816 0.0197843 0.019669 0.0195343 0.0193786 0.0192002 0.0189963 0.0187637 0.0184983 0.0181957 0.0178511 0.0174596 0.0170167 0.0165187 0.0159634 0.0153492 0.0146747 0.0139363 0.0131254 0.0122471 0.0112961 0.0103436 0.0095699 0.00980408 0.007947 0 0 0 0 0 0 0 0 0 0 0 0 0 0 0 0 0 0 0 0 0 0 0 0 0 0 0 0 0 0 0 0 0 0 0 0 0 0 0 0 0 0 0 0 0 0 0 0 0 0 0 0 0 0 
0.0217421 0.0217726 0.0217894 0.0218065 0.021824 0.0218411 0.0218575 0.0218727 0.0218866 0.0218992 0.0219103 0.02192 0.0219281 0.0219347 0.0219398 0.0219433 0.0219453 0.0219458 0.0219447 0.0219422 0.0219381 0.0219326 0.0219257 0.0219173 0.0219075 0.0218963 0.0218838 0.0218699 0.0218547 0.0218382 0.0218205 0.0218015 0.0217814 0.02176 0.0217375 0.0217139 0.0216892 0.0216634 0.0216367 0.0216089 0.0215802 0.0215506 0.0215201 0.0214888 0.0214567 0.0214239 0.0213904 0.0213562 0.0213215 0.0212862 0.0212504 0.0212143 0.0211777 0.0211409 0.0211039 0.0210666 0.0210293 0.020992 0.0209546 0.0209174 0.0208804 0.0208435 0.020807 0.0207709 0.0207352 0.0207 0.0206654 0.0206314 0.0205981 0.0205656 0.0205338 0.0205029 0.0204729 0.0204438 0.0204156 0.0203885 0.0203623 0.0203372 0.0203132 0.0202902 0.0202683 0.0202475 0.0202278 0.0202091 0.0201915 0.0201749 0.0201594 0.0201449 0.0201313 0.0201187 0.020107 0.0200962 0.0200862 0.0200771 0.0200687 0.020061 0.020054 0.0200477 0.020042 0.0200368 0.0200322 0.020028 0.0200243 0.0200211 0.0200182 0.0200156 0.0200134 0.0200114 0.0200097 0.0200082 0.0200069 0.0200058 0.0200048 0.020004 0.0200033 0.0200028 0.0200023 0.0200018 0.0200015 0.0200012 0.020001 0.0200008 0.0200006 0.0200005 0.0200004 0.0200003 0.0200002 0.0200002 0.0200001 0.0200001 0.0200001 0.0200001 0.02 0.02 0.02 0.02 0.02 0.02 0.02 0.02 0.02 0.02 0.02 0.02 0.02 0.02 0.02 0.02 0.02 0.02 0.02 0.02 0.02 0.02 0.02 0.02 0.02 0.02 0.02 0.02 0.02 0.02 0.02 0.02 0.02 0.02 0.02 0.02 0.02 0.02 0.02 0.02 0.02 0.02 0.02 0.02 0.02 0.02 0.02 0.02 0.02 0.02 0.02 0.02 0.02 0.02 0.02 0.02 0.02 0.02 0.02 0.02 0.02 0.02 0.02 0.02 0.02 0.02 0.02 0.02 0.02 0.02 0.02 0.02 0.02 0.02 0.02 0.02 0.02 0.02 0.02 0.02 0.02 0.0200001 0.0200001 0.0200001 0.0200001 0.0200001 0.0200001 0.0200001 0.0200001 0.0200001 0.0200001 0.0200001 0.0200001 0.0200001 0.0200001 0.0200001 0.0200001 0.0200001 0.0200002 0.0200002 0.0200002 0.0200002 0.0200002 0.0200002 0.0200002 0.0200002 0.0200002 0.0200002 0.0200002 0.0200002 0.0200002 0.0200002 0.0200002 0.0200002 0.0200002 0.0200002 0.0200002 0.0200002 0.0200002 0.0200001 0.0200001 0.0200001 0.02 0.02 0.0199999 0.0199999 0.0199998 0.0199998 0.0199997 0.0199996 0.0199995 0.0199994 0.0199992 0.0199991 0.0199989 0.0199988 0.0199986 0.0199984 0.0199982 0.0199979 0.0199977 0.0199974 0.0199971 0.0199967 0.0199964 0.019996 0.0199955 0.0199951 0.0199946 0.0199941 0.0199935 0.0199929 0.0199923 0.0199916 0.0199909 0.0199901 0.0199893 0.0199885 0.0199876 0.0199866 0.0199856 0.0199845 0.0199834 0.0199822 0.019981 0.0199797 0.0199784 0.0199769 0.0199755 0.0199739 0.0199723 0.0199706 0.0199688 0.019967 0.019965 0.0199631 0.019961 0.0199589 0.0199567 0.0199545 0.0199521 0.0199497 0.0199472 0.0199447 0.019942 0.0199393 0.0199366 0.0199337 0.0199308 0.0199278 0.0199248 0.0199216 0.0199185 0.0199152 0.0199119 0.0199085 0.0199051 0.0199016 0.0198981 0.0198945 0.0198908 0.0198872 0.0198834 0.0198797 0.0198759 0.019872 0.0198681 0.0198642 0.0198603 0.0198564 0.0198524 0.0198484 0.0198444 0.0198404 0.0198364 0.0198324 0.0198284 0.0198244 0.0198204 0.0198164 0.0198124 0.0198084 0.0198044 0.0198005 0.0197966 0.0197926 0.0197887 0.0197849 0.019781 0.0197772 0.0197734 0.0197696 0.0197659 0.0197622 0.0197585 0.0197548 0.0197511 0.0197474 0.0197438 0.0197402 0.0197366 0.0197329 0.0197293 0.0197257 0.0197221 0.0197185 0.0197148 0.0197112 0.0197075 0.0197037 0.0197 0.0196962 0.0196923 0.0196884 0.0196845 0.0196805 0.0196764 0.0196722 0.019668 0.0196636 0.0196592 0.0196547 0.01965 0.0196453 0.0196404 0.0196354 0.0196303 0.0196251 0.0196198 0.0196143 0.0196087 0.0196029 0.0195971 0.0195911 0.0195851 0.0195788 0.0195725 0.0195661 0.0195597 0.0195532 0.0195466 0.0195398 0.019533 0.0195261 0.0195191 0.019512 0.0195048 0.0194976 0.0194903 0.0194829 0.0194755 0.0194681 0.0194606 0.0194532 0.0194457 0.0194381 0.0194306 0.0194232 0.0194157 0.0194082 0.0194008 0.0193935 0.0193862 0.019379 0.0193718 0.0193648 0.0193578 0.0193509 0.0193442 0.0193375 0.019331 0.0193247 0.0193184 0.0193123 0.0193064 0.0193006 0.019295 0.0192896 0.0192844 0.0192793 0.0192745 0.0192698 0.0192653 0.0192611 0.0192571 0.0192533 0.0192498 0.0192465 0.0192435 0.0192407 0.0192382 0.019236 0.0192341 0.0192326 0.0192314 0.0192305 0.01923 0.0192299 0.0192302 0.019231 0.0192322 0.0192339 0.0192361 0.0192388 0.019242 0.0192459 0.0192503 0.0192553 0.019261 0.0192673 0.0192742 0.0192819 0.0192903 0.0192993 0.0193091 0.0193196 0.0193309 0.0193429 0.0193556 0.0193691 0.0193833 0.0193983 0.019414 0.0194305 0.0194476 0.0194655 0.0194841 0.0195034 0.0195233 0.0195439 0.0195651 0.0195869 0.0196092 0.0196321 0.0196554 0.0196791 0.0197032 0.0197275 0.0197521 0.0197767 0.0198014 0.019826 0.0198505 0.0198747 0.0198985 0.019922 0.0199449 0.0199673 0.0199891 0.0200103 0.0200309 0.0200507 0.02007 0.0200885 0.0201064 0.0201235 0.0201397 0.0201548 0.0201685 0.0201803 0.0201896 0.0201948 0.0201925 0.0201838 0.0201685 0.0201462 0.0201155 0.0200749 0.0200229 0.0199575 0.0198775 0.0197812 0.0196674 0.0195347 0.0193816 0.0192062 0.0190058 0.018777 0.018516 0.0182179 0.0178781 0.0174917 0.017054 0.0165614 0.0160118 0.0154038 0.0147373 0.0140088 0.013213 0.0123682 0.0114719 0.0105275 0.00967543 0.00897636 0.00775221 0.00608102 0.00437331 0.00266713 0.00131993 -0.000453554 0 0 0 0 0 0 0 0 0 0 0 0 0 0 0 0 0 0 0 0 0 0 0 0 0 0 0 0 0 0 0 0 0 0 0 0 0 0 0 0 0 0 0 0 0 0 0 0 0 
0.0217421 0.0217688 0.021789 0.0218076 0.0218254 0.0218425 0.0218588 0.0218739 0.0218877 0.0219002 0.0219112 0.0219208 0.0219289 0.0219354 0.0219404 0.0219439 0.0219458 0.0219463 0.0219452 0.0219426 0.0219385 0.0219329 0.0219259 0.0219174 0.0219076 0.0218964 0.0218838 0.0218698 0.0218546 0.0218381 0.0218203 0.0218013 0.021781 0.0217596 0.0217371 0.0217134 0.0216886 0.0216628 0.021636 0.0216081 0.0215794 0.0215497 0.0215192 0.0214878 0.0214556 0.0214228 0.0213892 0.021355 0.0213202 0.0212849 0.0212491 0.0212128 0.0211763 0.0211394 0.0211023 0.0210651 0.0210277 0.0209903 0.020953 0.0209157 0.0208787 0.0208418 0.0208053 0.0207692 0.0207335 0.0206983 0.0206637 0.0206298 0.0205965 0.0205639 0.0205322 0.0205013 0.0204713 0.0204422 0.0204141 0.020387 0.0203609 0.0203358 0.0203118 0.0202889 0.0202671 0.0202463 0.0202266 0.020208 0.0201905 0.0201739 0.0201585 0.020144 0.0201305 0.0201179 0.0201063 0.0200955 0.0200856 0.0200765 0.0200681 0.0200605 0.0200536 0.0200473 0.0200416 0.0200365 0.0200319 0.0200278 0.0200241 0.0200209 0.020018 0.0200154 0.0200132 0.0200113 0.0200096 0.0200081 0.0200068 0.0200057 0.0200048 0.020004 0.0200033 0.0200027 0.0200022 0.0200018 0.0200015 0.0200012 0.020001 0.0200008 0.0200006 0.0200005 0.0200004 0.0200003 0.0200002 0.0200002 0.0200001 0.0200001 0.0200001 0.0200001 0.02 0.02 0.02 0.02 0.02 0.02 0.02 0.02 0.02 0.02 0.02 0.02 0.02 0.02 0.02 0.02 0.02 0.02 0.02 0.02 0.02 0.02 0.02 0.02 0.02 0.02 0.02 0.02 0.02 0.02 0.02 0.02 0.02 0.02 0.02 0.02 0.02 0.02 0.02 0.02 0.02 0.02 0.02 0.02 0.02 0.02 0.02 0.02 0.02 0.02 0.02 0.02 0.02 0.02 0.02 0.02 0.02 0.02 0.02 0.02 0.02 0.02 0.02 0.02 0.02 0.02 0.02 0.02 0.02 0.02 0.02 0.02 0.02 0.02 0.02 0.02 0.02 0.02 0.02 0.02 0.02 0.0200001 0.0200001 0.0200001 0.0200001 0.0200001 0.0200001 0.0200001 0.0200001 0.0200001 0.0200001 0.0200001 0.0200001 0.0200001 0.0200001 0.0200001 0.0200001 0.0200001 0.0200001 0.0200002 0.0200002 0.0200002 0.0200002 0.0200002 0.0200002 0.0200002 0.0200002 0.0200002 0.0200002 0.0200002 0.0200002 0.0200002 0.0200002 0.0200002 0.0200002 0.0200002 0.0200002 0.0200002 0.0200002 0.0200001 0.0200001 0.0200001 0.02 0.02 0.0199999 0.0199999 0.0199998 0.0199998 0.0199997 0.0199996 0.0199995 0.0199994 0.0199992 0.0199991 0.019999 0.0199988 0.0199986 0.0199984 0.0199982 0.0199979 0.0199977 0.0199974 0.0199971 0.0199967 0.0199964 0.019996 0.0199956 0.0199951 0.0199946 0.0199941 0.0199936 0.019993 0.0199924 0.0199917 0.019991 0.0199902 0.0199894 0.0199886 0.0199877 0.0199867 0.0199857 0.0199846 0.0199835 0.0199824 0.0199811 0.0199799 0.0199785 0.0199771 0.0199756 0.0199741 0.0199725 0.0199708 0.019969 0.0199672 0.0199653 0.0199633 0.0199613 0.0199592 0.019957 0.0199547 0.0199524 0.01995 0.0199475 0.019945 0.0199423 0.0199397 0.0199369 0.0199341 0.0199311 0.0199282 0.0199251 0.019922 0.0199188 0.0199156 0.0199123 0.0199089 0.0199055 0.019902 0.0198985 0.0198949 0.0198913 0.0198876 0.0198839 0.0198801 0.0198763 0.0198725 0.0198686 0.0198647 0.0198608 0.0198568 0.0198528 0.0198489 0.0198449 0.0198409 0.0198368 0.0198328 0.0198288 0.0198248 0.0198208 0.0198167 0.0198127 0.0198088 0.0198048 0.0198008 0.0197969 0.0197929 0.019789 0.0197852 0.0197813 0.0197775 0.0197736 0.0197698 0.0197661 0.0197623 0.0197586 0.0197549 0.0197512 0.0197475 0.0197439 0.0197402 0.0197366 0.0197329 0.0197293 0.0197257 0.019722 0.0197184 0.0197147 0.019711 0.0197073 0.0197035 0.0196998 0.0196959 0.0196921 0.0196882 0.0196842 0.0196802 0.019676 0.0196719 0.0196676 0.0196633 0.0196588 0.0196543 0.0196496 0.0196449 0.0196401 0.0196351 0.0196301 0.0196249 0.0196196 0.0196142 0.0196087 0.0196031 0.0195974 0.0195915 0.0195857 0.0195797 0.0195736 0.0195674 0.0195611 0.0195547 0.0195482 0.0195416 0.019535 0.0195282 0.0195213 0.0195144 0.0195074 0.0195003 0.0194932 0.019486 0.0194788 0.0194715 0.0194642 0.0194569 0.0194495 0.0194422 0.0194349 0.0194275 0.0194202 0.0194129 0.0194057 0.0193985 0.0193914 0.0193843 0.0193773 0.0193704 0.0193635 0.0193568 0.0193502 0.0193437 0.0193373 0.019331 0.0193249 0.0193189 0.019313 0.0193074 0.0193018 0.0192965 0.0192913 0.0192863 0.0192815 0.0192769 0.0192725 0.0192683 0.0192643 0.0192606 0.019257 0.0192538 0.0192507 0.019248 0.0192455 0.0192433 0.0192413 0.0192398 0.0192385 0.0192376 0.019237 0.0192369 0.0192371 0.0192378 0.0192389 0.0192405 0.0192426 0.0192452 0.0192483 0.019252 0.0192563 0.0192612 0.0192667 0.0192728 0.0192796 0.0192871 0.0192953 0.0193042 0.0193138 0.0193241 0.0193352 0.019347 0.0193596 0.0193729 0.0193869 0.0194017 0.0194173 0.0194335 0.0194505 0.0194683 0.0194867 0.0195058 0.0195256 0.0195461 0.0195672 0.0195889 0.0196112 0.019634 0.0196572 0.0196809 0.019705 0.0197293 0.0197539 0.0197786 0.0198033 0.0198279 0.0198524 0.0198767 0.0199006 0.0199241 0.0199471 0.0199696 0.0199914 0.0200125 0.020033 0.0200528 0.0200718 0.0200902 0.0201077 0.0201244 0.0201402 0.0201547 0.0201677 0.0201787 0.020187 0.0201918 0.0201911 0.0201829 0.0201674 0.020144 0.0201121 0.0200704 0.0200175 0.0199518 0.019872 0.0197767 0.0196646 0.0195345 0.0193849 0.0192137 0.0190183 0.0187954 0.0185406 0.0182493 0.0179166 0.0175374 0.0171071 0.0166219 0.0160803 0.0154826 0.0148294 0.0141228 0.0133631 0.0125521 0.0117023 0.0107797 0.00986176 0.00886587 0.00758801 0.00601124 0.00434652 0.0026868 0.00112199 -0.000644259 -0.002448 -0.00432761 0 0 0 0 0 0 0 0 0 0 0 0 0 0 0 0 0 0 0 0 0 0 0 0 0 0 0 0 0 0 0 0 0 0 0 0 0 0 0 0 0 0 0 0 0 0 -1.73472e-18 
0.0217421 0.0217674 0.0217889 0.0218083 0.0218265 0.0218437 0.0218598 0.0218749 0.0218886 0.021901 0.021912 0.0219215 0.0219296 0.0219361 0.021941 0.0219445 0.0219464 0.0219468 0.0219457 0.021943 0.0219389 0.0219333 0.0219263 0.0219178 0.0219079 0.0218967 0.0218841 0.0218701 0.0218548 0.0218383 0.0218204 0.0218014 0.0217811 0.0217597 0.0217371 0.0217133 0.0216885 0.0216627 0.0216358 0.0216079 0.0215791 0.0215494 0.0215188 0.0214874 0.0214552 0.0214223 0.0213886 0.0213544 0.0213195 0.0212842 0.0212483 0.0212121 0.0211755 0.0211386 0.0211015 0.0210642 0.0210268 0.0209894 0.020952 0.0209147 0.0208777 0.0208408 0.0208043 0.0207681 0.0207324 0.0206973 0.0206627 0.0206287 0.0205954 0.0205629 0.0205311 0.0205002 0.0204703 0.0204412 0.0204131 0.020386 0.0203599 0.0203349 0.0203109 0.020288 0.0202662 0.0202455 0.0202258 0.0202072 0.0201897 0.0201732 0.0201578 0.0201433 0.0201299 0.0201173 0.0201057 0.020095 0.0200851 0.020076 0.0200677 0.0200601 0.0200532 0.020047 0.0200413 0.0200362 0.0200316 0.0200276 0.0200239 0.0200207 0.0200178 0.0200153 0.0200131 0.0200112 0.0200095 0.020008 0.0200067 0.0200057 0.0200047 0.0200039 0.0200033 0.0200027 0.0200022 0.0200018 0.0200015 0.0200012 0.020001 0.0200008 0.0200006 0.0200005 0.0200004 0.0200003 0.0200002 0.0200002 0.0200001 0.0200001 0.0200001 0.0200001 0.02 0.02 0.02 0.02 0.02 0.02 0.02 0.02 0.02 0.02 0.02 0.02 0.02 0.02 0.02 0.02 0.02 0.02 0.02 0.02 0.02 0.02 0.02 0.02 0.02 0.02 0.02 0.02 0.02 0.02 0.02 0.02 0.02 0.02 0.02 0.02 0.02 0.02 0.02 0.02 0.02 0.02 0.02 0.02 0.02 0.02 0.02 0.02 0.02 0.02 0.02 0.02 0.02 0.02 0.02 0.02 0.02 0.02 0.02 0.02 0.02 0.02 0.02 0.02 0.02 0.02 0.02 0.02 0.02 0.02 0.02 0.02 0.02 0.02 0.02 0.02 0.02 0.02 0.02 0.02 0.02 0.02 0.0200001 0.0200001 0.0200001 0.0200001 0.0200001 0.0200001 0.0200001 0.0200001 0.0200001 0.0200001 0.0200001 0.0200001 0.0200001 0.0200001 0.0200001 0.0200001 0.0200001 0.0200002 0.0200002 0.0200002 0.0200002 0.0200002 0.0200002 0.0200002 0.0200002 0.0200002 0.0200002 0.0200002 0.0200002 0.0200002 0.0200002 0.0200002 0.0200002 0.0200002 0.0200002 0.0200002 0.0200002 0.0200001 0.0200001 0.0200001 0.02 0.02 0.02 0.0199999 0.0199998 0.0199998 0.0199997 0.0199996 0.0199995 0.0199994 0.0199993 0.0199991 0.019999 0.0199988 0.0199986 0.0199984 0.0199982 0.019998 0.0199977 0.0199974 0.0199971 0.0199968 0.0199964 0.019996 0.0199956 0.0199952 0.0199947 0.0199942 0.0199936 0.0199931 0.0199924 0.0199918 0.0199911 0.0199903 0.0199895 0.0199887 0.0199878 0.0199868 0.0199858 0.0199848 0.0199837 0.0199825 0.0199813 0.01998 0.0199787 0.0199773 0.0199758 0.0199743 0.0199727 0.019971 0.0199693 0.0199675 0.0199656 0.0199636 0.0199616 0.0199595 0.0199573 0.0199551 0.0199528 0.0199504 0.0199479 0.0199454 0.0199428 0.0199401 0.0199373 0.0199345 0.0199316 0.0199287 0.0199256 0.0199225 0.0199194 0.0199161 0.0199128 0.0199095 0.0199061 0.0199026 0.0198991 0.0198955 0.0198919 0.0198882 0.0198845 0.0198807 0.0198769 0.0198731 0.0198692 0.0198654 0.0198614 0.0198575 0.0198535 0.0198495 0.0198455 0.0198415 0.0198375 0.0198335 0.0198295 0.0198254 0.0198214 0.0198174 0.0198134 0.0198094 0.0198054 0.0198014 0.0197975 0.0197935 0.0197896 0.0197857 0.0197818 0.019778 0.0197741 0.0197703 0.0197665 0.0197627 0.019759 0.0197553 0.0197515 0.0197478 0.0197441 0.0197405 0.0197368 0.0197331 0.0197295 0.0197258 0.0197221 0.0197185 0.0197148 0.019711 0.0197073 0.0197035 0.0196997 0.0196959 0.019692 0.0196881 0.0196841 0.01968 0.0196759 0.0196718 0.0196675 0.0196632 0.0196587 0.0196543 0.0196497 0.019645 0.0196402 0.0196354 0.0196304 0.0196254 0.0196202 0.019615 0.0196096 0.0196042 0.0195987 0.0195931 0.0195874 0.0195816 0.0195757 0.0195697 0.0195636 0.0195574 0.0195511 0.0195447 0.0195382 0.0195317 0.019525 0.0195183 0.0195115 0.0195047 0.0194978 0.0194908 0.0194838 0.0194768 0.0194697 0.0194626 0.0194555 0.0194484 0.0194413 0.0194342 0.0194271 0.01942 0.019413 0.019406 0.0193991 0.0193922 0.0193854 0.0193787 0.0193721 0.0193655 0.0193591 0.0193527 0.0193465 0.0193404 0.0193344 0.0193286 0.0193228 0.0193173 0.0193119 0.0193067 0.0193016 0.0192967 0.019292 0.0192874 0.0192831 0.0192789 0.019275 0.0192713 0.0192678 0.0192645 0.0192615 0.0192587 0.0192562 0.019254 0.0192521 0.0192504 0.0192491 0.0192482 0.0192475 0.0192473 0.0192475 0.0192481 0.0192491 0.0192505 0.0192525 0.019255 0.019258 0.0192615 0.0192657 0.0192704 0.0192757 0.0192817 0.0192883 0.0192956 0.0193036 0.0193123 0.0193217 0.0193318 0.0193427 0.0193542 0.0193666 0.0193797 0.0193935 0.019408 0.0194234 0.0194394 0.0194562 0.0194737 0.019492 0.0195109 0.0195305 0.0195508 0.0195718 0.0195933 0.0196155 0.0196382 0.0196614 0.019685 0.019709 0.0197333 0.0197578 0.0197825 0.0198072 0.0198319 0.0198564 0.0198807 0.0199046 0.0199281 0.0199512 0.0199736 0.0199954 0.0200165 0.0200368 0.0200564 0.0200753 0.0200933 0.0201104 0.0201267 0.0201418 0.0201556 0.0201678 0.0201778 0.0201851 0.0201888 0.0201877 0.0201801 0.0201646 0.0201408 0.020108 0.0200654 0.0200117 0.0199459 0.0198665 0.0197725 0.0196626 0.0195358 0.0193904 0.0192245 0.0190354 0.0188195 0.0185726 0.0182899 0.0179662 0.0175968 0.0171771 0.0167041 0.0161769 0.0155979 0.0149686 0.0142944 0.0135713 0.0127939 0.0119697 0.0110547 0.0100047 0.00889019 0.0075346 0.00600624 0.00437117 0.00272701 0.00110096 -0.00061934 -0.00236232 -0.00418224 -0.00673158 -0.00935123 0 0 0 0 0 0 0 0 0 0 0 0 0 0 0 0 0 0 0 0 0 0 0 0 0 0 0 0 0 0 0 0 0 0 0 0 0 0 0 0 0 0 0 0 -3.46945e-18 
0.0217421 0.0217668 0.0217889 0.0218089 0.0218274 0.0218447 0.0218608 0.0218758 0.0218895 0.0219018 0.0219128 0.0219222 0.0219302 0.0219367 0.0219417 0.0219451 0.021947 0.0219473 0.0219462 0.0219435 0.0219394 0.0219338 0.0219267 0.0219182 0.0219083 0.021897 0.0218844 0.0218704 0.0218551 0.0218385 0.0218207 0.0218016 0.0217813 0.0217598 0.0217372 0.0217134 0.0216886 0.0216627 0.0216357 0.0216078 0.021579 0.0215492 0.0215186 0.0214871 0.0214549 0.0214219 0.0213883 0.021354 0.0213191 0.0212837 0.0212478 0.0212115 0.0211749 0.0211379 0.0211008 0.0210634 0.021026 0.0209886 0.0209512 0.0209139 0.0208768 0.02084 0.0208034 0.0207673 0.0207315 0.0206964 0.0206617 0.0206278 0.0205945 0.020562 0.0205302 0.0204993 0.0204694 0.0204403 0.0204122 0.0203851 0.0203591 0.0203341 0.0203101 0.0202872 0.0202654 0.0202447 0.0202251 0.0202065 0.020189 0.0201726 0.0201572 0.0201427 0.0201293 0.0201168 0.0201052 0.0200945 0.0200847 0.0200756 0.0200673 0.0200598 0.0200529 0.0200467 0.020041 0.020036 0.0200314 0.0200274 0.0200237 0.0200205 0.0200177 0.0200152 0.020013 0.0200111 0.0200094 0.0200079 0.0200067 0.0200056 0.0200047 0.0200039 0.0200032 0.0200027 0.0200022 0.0200018 0.0200015 0.0200012 0.0200009 0.0200008 0.0200006 0.0200005 0.0200004 0.0200003 0.0200002 0.0200002 0.0200001 0.0200001 0.0200001 0.0200001 0.02 0.02 0.02 0.02 0.02 0.02 0.02 0.02 0.02 0.02 0.02 0.02 0.02 0.02 0.02 0.02 0.02 0.02 0.02 0.02 0.02 0.02 0.02 0.02 0.02 0.02 0.02 0.02 0.02 0.02 0.02 0.02 0.02 0.02 0.02 0.02 0.02 0.02 0.02 0.02 0.02 0.02 0.02 0.02 0.02 0.02 0.02 0.02 0.02 0.02 0.02 0.02 0.02 0.02 0.02 0.02 0.02 0.02 0.02 0.02 0.02 0.02 0.02 0.02 0.02 0.02 0.02 0.02 0.02 0.02 0.02 0.02 0.02 0.02 0.02 0.02 0.02 0.02 0.02 0.02 0.02 0.02 0.0200001 0.0200001 0.0200001 0.0200001 0.0200001 0.0200001 0.0200001 0.0200001 0.0200001 0.0200001 0.0200001 0.0200001 0.0200001 0.0200001 0.0200001 0.0200001 0.0200001 0.0200002 0.0200002 0.0200002 0.0200002 0.0200002 0.0200002 0.0200002 0.0200002 0.0200002 0.0200002 0.0200002 0.0200002 0.0200002 0.0200002 0.0200002 0.0200002 0.0200002 0.0200002 0.0200002 0.0200002 0.0200001 0.0200001 0.0200001 0.02 0.02 0.02 0.0199999 0.0199998 0.0199998 0.0199997 0.0199996 0.0199995 0.0199994 0.0199993 0.0199991 0.019999 0.0199988 0.0199987 0.0199985 0.0199982 0.019998 0.0199978 0.0199975 0.0199972 0.0199968 0.0199965 0.0199961 0.0199957 0.0199953 0.0199948 0.0199943 0.0199937 0.0199932 0.0199926 0.0199919 0.0199912 0.0199905 0.0199897 0.0199888 0.0199879 0.019987 0.019986 0.019985 0.0199839 0.0199828 0.0199816 0.0199803 0.019979 0.0199776 0.0199761 0.0199746 0.019973 0.0199714 0.0199696 0.0199678 0.019966 0.019964 0.019962 0.0199599 0.0199578 0.0199556 0.0199533 0.0199509 0.0199484 0.0199459 0.0199433 0.0199407 0.0199379 0.0199351 0.0199322 0.0199293 0.0199263 0.0199232 0.0199201 0.0199168 0.0199136 0.0199102 0.0199068 0.0199034 0.0198999 0.0198963 0.0198927 0.0198891 0.0198854 0.0198816 0.0198778 0.019874 0.0198702 0.0198663 0.0198624 0.0198584 0.0198545 0.0198505 0.0198465 0.0198425 0.0198385 0.0198345 0.0198304 0.0198264 0.0198224 0.0198183 0.0198143 0.0198103 0.0198063 0.0198023 0.0197984 0.0197944 0.0197905 0.0197866 0.0197827 0.0197788 0.0197749 0.0197711 0.0197673 0.0197635 0.0197597 0.0197559 0.0197522 0.0197485 0.0197447 0.019741 0.0197373 0.0197336 0.0197299 0.0197262 0.0197225 0.0197188 0.0197151 0.0197114 0.0197076 0.0197038 0.0197 0.0196962 0.0196923 0.0196883 0.0196843 0.0196803 0.0196762 0.0196721 0.0196679 0.0196636 0.0196592 0.0196548 0.0196503 0.0196458 0.0196411 0.0196364 0.0196316 0.0196268 0.0196218 0.0196168 0.0196116 0.0196064 0.0196011 0.0195957 0.0195902 0.0195846 0.0195789 0.0195732 0.0195673 0.0195613 0.0195553 0.0195491 0.0195429 0.0195366 0.0195302 0.0195238 0.0195173 0.0195107 0.0195041 0.0194974 0.0194907 0.019484 0.0194772 0.0194704 0.0194636 0.0194568 0.0194499 0.0194431 0.0194363 0.0194296 0.0194228 0.0194161 0.0194094 0.0194028 0.0193963 0.0193898 0.0193834 0.0193771 0.0193708 0.0193647 0.0193587 0.0193528 0.019347 0.0193413 0.0193358 0.0193304 0.0193251 0.01932 0.0193151 0.0193103 0.0193057 0.0193012 0.019297 0.0192929 0.019289 0.0192853 0.0192819 0.0192786 0.0192756 0.0192729 0.0192704 0.0192681 0.0192662 0.0192645 0.0192632 0.0192622 0.0192615 0.0192612 0.0192612 0.0192617 0.0192626 0.019264 0.0192658 0.0192682 0.019271 0.0192744 0.0192783 0.0192829 0.019288 0.0192938 0.0193002 0.0193073 0.0193151 0.0193235 0.0193327 0.0193425 0.0193531 0.0193645 0.0193765 0.0193893 0.0194029 0.0194172 0.0194322 0.019448 0.0194646 0.0194818 0.0194998 0.0195185 0.0195379 0.019558 0.0195787 0.0196001 0.019622 0.0196446 0.0196676 0.0196911 0.019715 0.0197392 0.0197636 0.0197883 0.0198129 0.0198376 0.0198621 0.0198864 0.0199103 0.0199338 0.0199568 0.0199792 0.0200009 0.0200218 0.020042 0.0200614 0.0200799 0.0200976 0.0201142 0.0201299 0.0201443 0.0201572 0.0201683 0.0201772 0.0201833 0.0201857 0.0201834 0.0201753 0.0201597 0.0201357 0.0201024 0.0200592 0.0200051 0.0199393 0.0198606 0.0197681 0.0196607 0.0195375 0.0193968 0.0192367 0.0190543 0.0188462 0.018608 0.0183348 0.018022 0.0176648 0.0172597 0.0168042 0.0162983 0.0157442 0.0151456 0.0145014 0.0138117 0.0130588 0.012226 0.0112982 0.0102228 0.0089818 0.0075823 0.0060718 0.00446438 0.00281586 0.00114412 -0.000574114 -0.00240231 -0.00418374 -0.00610908 -0.00887935 -0.0124886 0 0 0 0 0 0 0 0 0 0 0 0 0 0 0 0 0 0 0 0 0 0 0 0 0 0 0 0 0 0 0 0 0 0 0 0 0 0 0 0 0 0 0 0 