# vtk DataFile Version 2.0
iteration 2592
ASCII

DATASET STRUCTURED_POINTS
DIMENSIONS 621 64 1
ORIGIN 0 0 0
SPACING 0.00161031 0.00161031 0.00161031

POINT_DATA 39744
SCALARS P float 1
LOOKUP_TABLE default
0 0 0 0 0 0 0 0 0 0 0 0 0 0 0 0 0 0 0 0 0 0 0 0 0 0 0 0 0 0 0 0 0 0 0 0 0 0 0 0 0 0 0 0 0 0 0 0 0 0 0 0 0 0 0 0 0 0 0 0 0 0 0 0 0 0 0 0 0 0 0 0 0 0 0 0 0 0 0 0 0 0 0 0 0 0 0 0 0 0 0 0 0 0 0 0 0 0 0 0 0 0 0 0 0 0 0 0 0 0 0 0 0 0 0 0 0 0 0 0 0 0 0 0 0 0 0 0 0 0 0 0 0 0 0 0 0 0 0 0 0 0 0 0 0 0 0 0 0 0 0 0 0 0 0 0 0 0 0 0 0 0 0 0 0 0 0 0 0 0 0 0 0 0 0 0 0 0 0 0 0 0 0 0 0 0 0 0 0 0 0 0 0 0 0 0 0 0 0 0 0 0 0 0 0 0 0 0 0 0 0 0 0 0 0 0 0 0 0 0 0 0 0 0 0 0 0 0 0 0 0 0 0 0 0 0 0 0 0 0 0 0 0 0 0 0 0 0 0 0 0 0 0 0 0 0 0 0 0 0 0 0 0 0 0 0 0 0 0 0 0 0 0 0 0 0 0 0 0 0 0 0 0 0 0 0 0 0 0 0 0 0 0 0 0 0 0 0 0 0 0 0 0 0 0 0 0 0 0 0 0 0 0 0 0 0 0 0 0 0 0 0 0 0 0 0 0 0 0 0 0 0 0 0 0 0 0 0 0 0 0 0 0 0 0 0 0 0 0 0 0 0 0 0 0 0 0 0 0 0 0 0 0 0 0 0 0 0 0 0 0 0 0 0 0 0 0 0 0 0 0 0 0 0 0 0 0 0 0 0 0 0 0 0 0 0 0 0 0 0 0 0 0 0 0 0 0 0 0 0 0 0 0 0 0 0 0 0 0 0 0 0 0 0 0 0 0 0 0 0 0 0 0 0 0 0 0 0 0 0 0 0 0 0 0 0 0 0 0 0 0 0 0 0 0 0 0 0 0 0 0 0 0 0 0 0 0 0 0 0 0 0 0 0 0 0 0 0 0 0 0 0 0 0 0 0 0 0 0 0 0 0 0 0 0 0 0 0 0 0 0 0 0 0 0 0 0 0 0 0 0 0 0 0 0 0 0 0 0 0 0 0 0 0 0 0 0 0 0 0 0 0 0 0 0 0 0 0 0 0 0 0 0 0 0 0 0 0 0 0 0 0 0 0 0 0 0 0 0 0 0 0 0 0 0 0 0 0 0 0 0 0 0 0 0 0 0 0 0 0 0 0 0 0 0 0 0 0 0 0 0 0 0 0 0 0 0 0 0 0 0 0 0 0 0 0 0 0 0 0 0 0 0 0 0 0 0 0 0 0 0 
0.0180287 0.0181357 0.0180656 0.0180763 0.0180906 0.0181082 0.0181283 0.0181504 0.0181742 0.0181996 0.0182267 0.0182553 0.0182854 0.0183169 0.0183498 0.018384 0.0184195 0.0184561 0.0184939 0.0185327 0.0185726 0.0186134 0.018655 0.0186975 0.0187409 0.0187849 0.0188297 0.0188752 0.0189213 0.018968 0.0190154 0.0190633 0.0191117 0.0191607 0.0192102 0.0192601 0.0193105 0.0193613 0.0194124 0.0194639 0.0195158 0.0195679 0.0196202 0.0196727 0.0197253 0.0197778 0.0198299 0.0198807 0.0199282 0.0199691 0.02 0.0200364 0.020078 0.0201218 0.0201665 0.0202119 0.0202577 0.0203036 0.0203496 0.0203956 0.0204414 0.020487 0.0205323 0.0205773 0.0206218 0.020666 0.0207096 0.0207526 0.0207951 0.0208369 0.020878 0.0209184 0.020958 0.0209968 0.0210348 0.0210719 0.0211082 0.0211435 0.0211778 0.0212112 0.0212436 0.021275 0.0213053 0.0213345 0.0213627 0.0213898 0.0214157 0.0214405 0.0214642 0.0214867 0.021508 0.0215281 0.0215471 0.0215648 0.0215813 0.0215966 0.0216107 0.0216235 0.0216352 0.0216455 0.0216547 0.0216626 0.0216692 0.0216747 0.0216789 0.0216818 0.0216836 0.0216842 0.0216835 0.0216817 0.0216787 0.0216745 0.0216692 0.0216627 0.0216551 0.0216464 0.0216366 0.0216258 0.021614 0.0216011 0.0215872 0.0215724 0.0215566 0.02154 0.0215224 0.021504 0.0214848 0.0214648 0.021444 0.0214226 0.0214004 0.0213776 0.0213542 0.0213303 0.0213058 0.0212808 0.0212553 0.0212295 0.0212032 0.0211766 0.0211498 0.0211226 0.0210953 0.0210677 0.0210401 0.0210123 0.0209845 0.0209567 0.0209289 0.0209011 0.0208734 0.0208459 0.0208185 0.0207914 0.0207644 0.0207377 0.0207114 0.0206853 0.0206596 0.0206343 0.0206093 0.0205848 0.0205608 0.0205372 0.0205141 0.0204916 0.0204695 0.020448 0.020427 0.0204066 0.0203868 0.0203676 0.0203489 0.0203309 0.0203134 0.0202966 0.0202803 0.0202646 0.0202496 0.0202351 0.0202212 0.0202079 0.0201952 0.020183 0.0201714 0.0201603 0.0201498 0.0201398 0.0201303 0.0201212 0.0201127 0.0201047 0.020097 0.0200899 0.0200831 0.0200768 0.0200708 0.0200652 0.02006 0.0200551 0.0200506 0.0200464 0.0200424 0.0200387 0.0200354 0.0200322 0.0200293 0.0200266 0.0200241 0.0200219 0.0200198 0.0200179 0.0200161 0.0200145 0.020013 0.0200117 0.0200105 0.0200094 0.0200084 0.0200075 0.0200067 0.0200059 0.0200053 0.0200047 0.0200041 0.0200036 0.0200032 0.0200028 0.0200025 0.0200022 0.0200019 0.0200017 0.0200015 0.0200013 0.0200011 0.020001 0.0200009 0.0200008 0.0200007 0.0200006 0.0200005 0.0200004 0.0200004 0.0200003 0.0200003 0.0200003 0.0200002 0.0200002 0.0200002 0.0200002 0.0200002 0.0200002 0.0200001 0.0200001 0.0200001 0.0200001 0.0200001 0.0200001 0.0200001 0.0200001 0.0200001 0.0200001 0.0200001 0.0200001 0.0200001 0.0200001 0.0200001 0.0200001 0.0200001 0.0200001 0.0200001 0.0200001 0.02 0.02 0.02 0.02 0.02 0.0199999 0.0199999 0.0199999 0.0199998 0.0199998 0.0199997 0.0199997 0.0199996 0.0199996 0.0199995 0.0199994 0.0199993 0.0199992 0.0199991 0.019999 0.0199989 0.0199988 0.0199986 0.0199985 0.0199983 0.0199981 0.019998 0.0199978 0.0199975 0.0199973 0.0199971 0.0199968 0.0199965 0.0199963 0.0199959 0.0199956 0.0199953 0.0199949 0.0199945 0.0199941 0.0199937 0.0199932 0.0199928 0.0199923 0.0199918 0.0199912 0.0199907 0.0199901 0.0199894 0.0199888 0.0199881 0.0199874 0.0199867 0.019986 0.0199852 0.0199844 0.0199836 0.0199827 0.0199818 0.0199809 0.01998 0.019979 0.0199781 0.019977 0.019976 0.0199749 0.0199739 0.0199728 0.0199716 0.0199705 0.0199693 0.0199681 0.0199669 0.0199657 0.0199645 0.0199632 0.0199619 0.0199607 0.0199594 0.0199581 0.0199568 0.0199555 0.0199542 0.019953 0.0199517 0.0199504 0.0199491 0.0199479 0.0199467 0.0199454 0.0199443 0.0199431 0.019942 0.0199409 0.0199398 0.0199388 0.0199378 0.0199368 0.0199359 0.0199351 0.0199343 0.0199336 0.0199329 0.0199323 0.0199317 0.0199313 0.0199309 0.0199306 0.0199303 0.0199302 0.0199301 0.0199301 0.0199302 0.0199305 0.0199308 0.0199312 0.0199317 0.0199323 0.019933 0.0199338 0.0199348 0.0199358 0.0199369 0.0199382 0.0199396 0.0199411 0.0199427 0.0199444 0.0199462 0.0199482 0.0199502 0.0199524 0.0199547 0.0199571 0.0199596 0.0199622 0.0199649 0.0199677 0.0199706 0.0199736 0.0199767 0.0199798 0.0199831 0.0199864 0.0199898 0.0199933 0.0199968 0.0200004 0.0200041 0.0200078 0.0200115 0.0200153 0.0200191 0.020023 0.0200268 0.0200307 0.0200345 0.0200384 0.0200422 0.020046 0.0200498 0.0200535 0.0200572 0.0200608 0.0200644 0.0200679 0.0200713 0.0200747 0.0200779 0.020081 0.020084 0.0200869 0.0200897 0.0200923 0.0200948 0.0200971 0.0200992 0.0201012 0.020103 0.0201046 0.0201061 0.0201073 0.0201083 0.0201091 0.0201097 0.0201101 0.0201102 0.0201102 0.0201098 0.0201093 0.0201085 0.0201075 0.0201062 0.0201047 0.0201029 0.0201009 0.0200986 0.0200961 0.0200934 0.0200904 0.0200872 0.0200838 0.0200801 0.0200762 0.0200721 0.0200677 0.0200632 0.0200585 0.0200536 0.0200485 0.0200433 0.0200379 0.0200324 0.0200267 0.020021 0.0200151 0.0200092 0.0200032 0.0199971 0.019991 0.0199849 0.0199788 0.0199727 0.0199667 0.0199607 0.0199548 0.019949 0.0199433 0.0199377 0.0199324 0.0199271 0.0199221 0.0199173 0.0199127 0.0199084 0.0199044 0.0199006 0.0198972 0.019894 0.0198912 0.0198888 0.0198867 0.0198849 0.0198836 0.0198826 0.0198821 0.019882 0.0198822 0.0198829 0.019884 0.0198855 0.0198874 0.0198897 0.0198925 0.0198956 0.0198991 0.0199029 0.0199072 0.0199117 0.0199166 0.0199217 0.0199271 0.0199328 0.0199386 0.0199447 0.0199508 0.0199571 0.0199634 0.0199698 0.0199762 0.0199825 0.0199887 0.0199948 0.0200007 0.0200064 0.0200118 0.020017 0.0200218 0.0200263 0.0200305 0.0200342 0.0200376 0.0200406 0.0200432 0.0200454 0.0200473 0.0200488 0.0200501 0.0200513 0.0200522 0.0200531 0.0200541 0.0200552 0.0200565 0.0200581 0.0200603 0.020063 0.0200664 0.0200707 0.0200759 0.0200823 0.0200898 0.0200986 0.0201087 0.0201203 0.0201335 0.0201482 0.0201646 0.0201827 0.0202029 0.0202251 0.0202498 0.0202773 0.0203079 0.020342 0.0203802 0.0204227 0.0204698 0.0205215 0.0205778 0.0206379 0.0207011 0.0207656 0.0208295 0.0208898 0.0209426 0.0209835 0.0210073 0.0210091 0.0209842 0.0209293 0.0208424 0.0207227 0.0205708 0.0203872 0.020172 0.0199299 0.0196555 0.0193493 0.0190238 0.0186382 0.0183314 0.0184116 0.0212189 0 0 0 0 0 
0.0180287 0.0180764 0.0180681 0.0180777 0.0180918 0.0181092 0.018129 0.0181509 0.0181746 0.0181999 0.0182269 0.0182555 0.0182856 0.018317 0.0183499 0.0183841 0.0184195 0.0184562 0.0184939 0.0185328 0.0185726 0.0186134 0.018655 0.0186976 0.0187409 0.018785 0.0188298 0.0188752 0.0189214 0.0189681 0.0190154 0.0190634 0.0191118 0.0191608 0.0192102 0.0192602 0.0193105 0.0193613 0.0194125 0.019464 0.0195158 0.0195679 0.0196202 0.0196726 0.019725 0.0197771 0.0198283 0.0198776 0.0199234 0.0199649 0.0200026 0.0200421 0.0200841 0.0201277 0.0201724 0.0202177 0.0202634 0.0203093 0.0203552 0.0204011 0.0204468 0.0204923 0.0205376 0.0205824 0.0206269 0.020671 0.0207145 0.0207574 0.0207998 0.0208415 0.0208825 0.0209228 0.0209623 0.021001 0.0210389 0.0210759 0.021112 0.0211472 0.0211815 0.0212147 0.021247 0.0212782 0.0213084 0.0213376 0.0213656 0.0213925 0.0214184 0.0214431 0.0214666 0.021489 0.0215102 0.0215302 0.021549 0.0215666 0.021583 0.0215982 0.0216121 0.0216248 0.0216363 0.0216466 0.0216556 0.0216633 0.0216699 0.0216752 0.0216793 0.0216821 0.0216838 0.0216842 0.0216834 0.0216815 0.0216783 0.0216741 0.0216686 0.021662 0.0216543 0.0216455 0.0216356 0.0216247 0.0216127 0.0215998 0.0215858 0.0215709 0.021555 0.0215382 0.0215206 0.0215021 0.0214828 0.0214627 0.0214419 0.0214203 0.0213981 0.0213752 0.0213518 0.0213277 0.0213031 0.0212781 0.0212526 0.0212267 0.0212004 0.0211737 0.0211468 0.0211196 0.0210923 0.0210647 0.021037 0.0210092 0.0209814 0.0209536 0.0209257 0.020898 0.0208703 0.0208428 0.0208154 0.0207883 0.0207613 0.0207347 0.0207083 0.0206823 0.0206566 0.0206313 0.0206064 0.020582 0.020558 0.0205345 0.0205114 0.0204889 0.0204669 0.0204455 0.0204246 0.0204042 0.0203845 0.0203653 0.0203467 0.0203288 0.0203114 0.0202946 0.0202784 0.0202628 0.0202478 0.0202334 0.0202196 0.0202063 0.0201937 0.0201816 0.02017 0.020159 0.0201485 0.0201386 0.0201291 0.0201202 0.0201117 0.0201037 0.0200962 0.020089 0.0200823 0.020076 0.0200701 0.0200646 0.0200594 0.0200546 0.0200501 0.0200459 0.020042 0.0200383 0.020035 0.0200319 0.020029 0.0200263 0.0200239 0.0200216 0.0200195 0.0200176 0.0200159 0.0200143 0.0200129 0.0200116 0.0200104 0.0200093 0.0200083 0.0200074 0.0200066 0.0200058 0.0200052 0.0200046 0.0200041 0.0200036 0.0200032 0.0200028 0.0200025 0.0200022 0.0200019 0.0200017 0.0200015 0.0200013 0.0200011 0.020001 0.0200009 0.0200007 0.0200006 0.0200006 0.0200005 0.0200004 0.0200004 0.0200003 0.0200003 0.0200003 0.0200002 0.0200002 0.0200002 0.0200002 0.0200002 0.0200002 0.0200001 0.0200001 0.0200001 0.0200001 0.0200001 0.0200001 0.0200001 0.0200001 0.0200001 0.0200001 0.0200001 0.0200001 0.0200001 0.0200001 0.0200001 0.0200001 0.0200001 0.0200001 0.0200001 0.0200001 0.02 0.02 0.02 0.02 0.02 0.0199999 0.0199999 0.0199999 0.0199998 0.0199998 0.0199997 0.0199997 0.0199996 0.0199996 0.0199995 0.0199994 0.0199993 0.0199992 0.0199991 0.019999 0.0199989 0.0199988 0.0199986 0.0199985 0.0199983 0.0199981 0.019998 0.0199978 0.0199976 0.0199973 0.0199971 0.0199968 0.0199966 0.0199963 0.019996 0.0199956 0.0199953 0.0199949 0.0199945 0.0199941 0.0199937 0.0199933 0.0199928 0.0199923 0.0199918 0.0199913 0.0199907 0.0199901 0.0199895 0.0199888 0.0199882 0.0199875 0.0199868 0.019986 0.0199853 0.0199845 0.0199836 0.0199828 0.0199819 0.019981 0.0199801 0.0199791 0.0199781 0.0199771 0.0199761 0.019975 0.019974 0.0199728 0.0199717 0.0199706 0.0199694 0.0199682 0.019967 0.0199658 0.0199646 0.0199633 0.0199621 0.0199608 0.0199595 0.0199582 0.0199569 0.0199556 0.0199544 0.0199531 0.0199518 0.0199505 0.0199493 0.019948 0.0199468 0.0199456 0.0199444 0.0199432 0.0199421 0.019941 0.0199399 0.0199389 0.0199379 0.0199369 0.019936 0.0199352 0.0199344 0.0199336 0.0199329 0.0199323 0.0199318 0.0199313 0.0199309 0.0199306 0.0199303 0.0199302 0.0199301 0.0199301 0.0199302 0.0199304 0.0199307 0.0199311 0.0199316 0.0199321 0.0199328 0.0199337 0.0199346 0.0199356 0.0199367 0.019938 0.0199393 0.0199408 0.0199424 0.0199441 0.0199459 0.0199478 0.0199498 0.019952 0.0199542 0.0199566 0.019959 0.0199616 0.0199643 0.019967 0.0199699 0.0199729 0.0199759 0.0199791 0.0199823 0.0199856 0.019989 0.0199924 0.0199959 0.0199995 0.0200031 0.0200067 0.0200105 0.0200142 0.020018 0.0200218 0.0200256 0.0200294 0.0200332 0.020037 0.0200408 0.0200446 0.0200483 0.020052 0.0200557 0.0200593 0.0200628 0.0200663 0.0200697 0.020073 0.0200762 0.0200793 0.0200822 0.0200851 0.0200878 0.0200904 0.0200929 0.0200951 0.0200973 0.0200992 0.020101 0.0201026 0.020104 0.0201052 0.0201062 0.020107 0.0201076 0.020108 0.0201081 0.020108 0.0201077 0.0201071 0.0201063 0.0201053 0.020104 0.0201025 0.0201007 0.0200987 0.0200965 0.020094 0.0200912 0.0200883 0.0200851 0.0200816 0.020078 0.0200741 0.02007 0.0200657 0.0200612 0.0200565 0.0200516 0.0200466 0.0200414 0.020036 0.0200305 0.0200249 0.0200192 0.0200133 0.0200074 0.0200015 0.0199954 0.0199894 0.0199833 0.0199772 0.0199712 0.0199652 0.0199592 0.0199534 0.0199476 0.0199419 0.0199364 0.0199311 0.0199259 0.0199209 0.0199161 0.0199116 0.0199073 0.0199032 0.0198995 0.019896 0.0198929 0.0198901 0.0198876 0.0198855 0.0198838 0.0198824 0.0198815 0.0198809 0.0198807 0.019881 0.0198816 0.0198827 0.0198842 0.0198861 0.0198884 0.019891 0.0198941 0.0198976 0.0199014 0.0199055 0.01991 0.0199148 0.0199199 0.0199253 0.0199309 0.0199367 0.0199427 0.0199488 0.019955 0.0199613 0.0199676 0.0199739 0.0199802 0.0199864 0.0199924 0.0199983 0.0200039 0.0200093 0.0200145 0.0200193 0.0200238 0.0200279 0.0200316 0.020035 0.0200379 0.0200405 0.0200427 0.0200446 0.0200461 0.0200474 0.0200485 0.0200494 0.0200503 0.0200512 0.0200523 0.0200535 0.0200551 0.0200572 0.0200599 0.0200632 0.0200674 0.0200726 0.0200788 0.0200862 0.0200949 0.0201049 0.0201164 0.0201294 0.020144 0.0201603 0.0201783 0.0201983 0.0202205 0.0202451 0.0202725 0.0203031 0.0203372 0.0203754 0.020418 0.0204651 0.020517 0.0205734 0.0206338 0.0206973 0.0207623 0.0208268 0.0208877 0.0209414 0.0209832 0.0210083 0.0210113 0.020988 0.020935 0.0208501 0.0207325 0.0205825 0.0204018 0.020195 0.0199581 0.0197003 0.0194207 0.0191317 0.0188516 0.0185205 0.0183985 0.0186186 0.0177394 0.015786 0.013289 0.0122364 0 
0.0180287 0.0180577 0.0180663 0.0180781 0.0180927 0.0181101 0.0181298 0.0181515 0.0181751 0.0182005 0.0182274 0.018256 0.018286 0.0183175 0.0183503 0.0183845 0.01842 0.0184566 0.0184943 0.0185332 0.018573 0.0186138 0.0186555 0.018698 0.0187413 0.0187854 0.0188303 0.0188758 0.0189219 0.0189687 0.019016 0.019064 0.0191124 0.0191614 0.0192109 0.0192608 0.0193112 0.019362 0.0194131 0.0194646 0.0195164 0.0195685 0.0196207 0.0196729 0.0197249 0.0197762 0.0198262 0.0198738 0.0199185 0.0199604 0.0200013 0.0200429 0.0200857 0.0201297 0.0201745 0.0202198 0.0202655 0.0203114 0.0203573 0.0204032 0.0204489 0.0204944 0.0205396 0.0205845 0.020629 0.020673 0.0207165 0.0207594 0.0208018 0.0208434 0.0208844 0.0209247 0.0209642 0.0210029 0.0210407 0.0210777 0.0211138 0.021149 0.0211832 0.0212164 0.0212486 0.0212798 0.02131 0.0213391 0.0213671 0.021394 0.0214197 0.0214444 0.0214679 0.0214902 0.0215113 0.0215313 0.0215501 0.0215676 0.021584 0.0215991 0.021613 0.0216257 0.0216371 0.0216473 0.0216563 0.021664 0.0216705 0.0216758 0.0216798 0.0216826 0.0216842 0.0216846 0.0216838 0.0216817 0.0216786 0.0216742 0.0216687 0.0216621 0.0216543 0.0216455 0.0216356 0.0216246 0.0216126 0.0215995 0.0215855 0.0215706 0.0215546 0.0215378 0.0215201 0.0215016 0.0214823 0.0214621 0.0214413 0.0214197 0.0213974 0.0213745 0.021351 0.0213269 0.0213023 0.0212772 0.0212517 0.0212257 0.0211994 0.0211728 0.0211458 0.0211186 0.0210912 0.0210636 0.0210359 0.0210081 0.0209803 0.0209524 0.0209246 0.0208968 0.0208691 0.0208416 0.0208142 0.0207871 0.0207602 0.0207335 0.0207071 0.0206811 0.0206554 0.0206302 0.0206053 0.0205808 0.0205568 0.0205333 0.0205103 0.0204878 0.0204658 0.0204444 0.0204235 0.0204032 0.0203835 0.0203643 0.0203458 0.0203278 0.0203104 0.0202937 0.0202775 0.020262 0.020247 0.0202326 0.0202188 0.0202056 0.020193 0.0201809 0.0201694 0.0201584 0.0201479 0.020138 0.0201286 0.0201197 0.0201112 0.0201033 0.0200957 0.0200886 0.0200819 0.0200757 0.0200698 0.0200643 0.0200591 0.0200543 0.0200498 0.0200456 0.0200417 0.0200381 0.0200348 0.0200317 0.0200288 0.0200262 0.0200237 0.0200215 0.0200194 0.0200175 0.0200158 0.0200142 0.0200128 0.0200115 0.0200103 0.0200092 0.0200082 0.0200073 0.0200065 0.0200058 0.0200051 0.0200046 0.020004 0.0200036 0.0200031 0.0200028 0.0200024 0.0200021 0.0200019 0.0200016 0.0200014 0.0200013 0.0200011 0.020001 0.0200008 0.0200007 0.0200006 0.0200006 0.0200005 0.0200004 0.0200004 0.0200003 0.0200003 0.0200003 0.0200002 0.0200002 0.0200002 0.0200002 0.0200002 0.0200002 0.0200001 0.0200001 0.0200001 0.0200001 0.0200001 0.0200001 0.0200001 0.0200001 0.0200001 0.0200001 0.0200001 0.0200001 0.0200001 0.0200001 0.0200001 0.0200001 0.0200001 0.0200001 0.0200001 0.0200001 0.02 0.02 0.02 0.02 0.02 0.0199999 0.0199999 0.0199999 0.0199998 0.0199998 0.0199997 0.0199997 0.0199996 0.0199996 0.0199995 0.0199994 0.0199993 0.0199992 0.0199991 0.019999 0.0199989 0.0199988 0.0199986 0.0199985 0.0199983 0.0199981 0.019998 0.0199978 0.0199976 0.0199973 0.0199971 0.0199968 0.0199966 0.0199963 0.019996 0.0199956 0.0199953 0.0199949 0.0199946 0.0199942 0.0199937 0.0199933 0.0199928 0.0199923 0.0199918 0.0199913 0.0199907 0.0199901 0.0199895 0.0199889 0.0199882 0.0199875 0.0199868 0.0199861 0.0199853 0.0199845 0.0199837 0.0199829 0.019982 0.0199811 0.0199802 0.0199792 0.0199782 0.0199772 0.0199762 0.0199751 0.0199741 0.019973 0.0199718 0.0199707 0.0199695 0.0199684 0.0199672 0.0199659 0.0199647 0.0199635 0.0199622 0.0199609 0.0199597 0.0199584 0.0199571 0.0199558 0.0199545 0.0199532 0.019952 0.0199507 0.0199494 0.0199482 0.019947 0.0199458 0.0199446 0.0199434 0.0199423 0.0199412 0.0199401 0.019939 0.019938 0.0199371 0.0199362 0.0199353 0.0199345 0.0199338 0.0199331 0.0199325 0.0199319 0.0199314 0.019931 0.0199307 0.0199304 0.0199303 0.0199302 0.0199302 0.0199303 0.0199304 0.0199307 0.0199311 0.0199316 0.0199321 0.0199328 0.0199336 0.0199345 0.0199355 0.0199366 0.0199378 0.0199391 0.0199406 0.0199421 0.0199438 0.0199456 0.0199474 0.0199494 0.0199515 0.0199538 0.0199561 0.0199585 0.019961 0.0199637 0.0199664 0.0199692 0.0199721 0.0199751 0.0199782 0.0199814 0.0199846 0.019988 0.0199913 0.0199948 0.0199983 0.0200019 0.0200055 0.0200091 0.0200128 0.0200165 0.0200202 0.020024 0.0200277 0.0200315 0.0200352 0.0200389 0.0200427 0.0200463 0.02005 0.0200536 0.0200571 0.0200606 0.020064 0.0200673 0.0200705 0.0200736 0.0200767 0.0200796 0.0200824 0.020085 0.0200876 0.0200899 0.0200922 0.0200942 0.0200961 0.0200979 0.0200994 0.0201008 0.0201019 0.0201029 0.0201036 0.0201042 0.0201045 0.0201046 0.0201045 0.0201041 0.0201035 0.0201027 0.0201016 0.0201003 0.0200988 0.020097 0.020095 0.0200928 0.0200903 0.0200875 0.0200846 0.0200814 0.020078 0.0200743 0.0200705 0.0200664 0.0200621 0.0200576 0.020053 0.0200481 0.0200431 0.020038 0.0200327 0.0200272 0.0200217 0.020016 0.0200102 0.0200044 0.0199985 0.0199925 0.0199865 0.0199805 0.0199746 0.0199686 0.0199627 0.0199568 0.019951 0.0199453 0.0199397 0.0199343 0.019929 0.0199239 0.019919 0.0199143 0.0199098 0.0199055 0.0199016 0.0198979 0.0198945 0.0198914 0.0198886 0.0198862 0.0198841 0.0198824 0.019881 0.01988 0.0198795 0.0198793 0.0198795 0.0198801 0.0198812 0.0198826 0.0198845 0.0198867 0.0198893 0.0198923 0.0198957 0.0198995 0.0199035 0.019908 0.0199127 0.0199177 0.0199229 0.0199284 0.0199341 0.01994 0.019946 0.0199521 0.0199583 0.0199645 0.0199707 0.0199769 0.0199829 0.0199889 0.0199946 0.0200002 0.0200055 0.0200105 0.0200152 0.0200196 0.0200236 0.0200272 0.0200305 0.0200334 0.0200358 0.020038 0.0200397 0.0200412 0.0200424 0.0200434 0.0200443 0.0200451 0.020046 0.0200469 0.0200481 0.0200497 0.0200517 0.0200543 0.0200576 0.0200617 0.0200668 0.0200729 0.0200803 0.0200889 0.0200989 0.0201103 0.0201232 0.0201378 0.020154 0.0201721 0.0201921 0.0202143 0.0202391 0.0202666 0.0202973 0.0203318 0.0203703 0.0204132 0.0204609 0.0205134 0.0205706 0.020632 0.0206965 0.0207629 0.0208288 0.0208914 0.020947 0.0209908 0.021018 0.0210233 0.0210024 0.0209519 0.0208699 0.0207559 0.0206114 0.0204398 0.020244 0.0200283 0.0198116 0.0195731 0.01936 0.0191199 0.0188265 0.0186007 0.0181896 0.0171852 0.0152623 0.0126043 0.0084239 2.1684e-19 
0.0180287 0.0180505 0.0180644 0.0180781 0.0180934 0.0181109 0.0181306 0.0181523 0.0181758 0.0182011 0.018228 0.0182565 0.0182865 0.018318 0.0183509 0.018385 0.0184205 0.0184571 0.0184949 0.0185337 0.0185735 0.0186143 0.018656 0.0186986 0.0187419 0.0187861 0.0188309 0.0188764 0.0189226 0.0189694 0.0190168 0.0190647 0.0191132 0.0191622 0.0192117 0.0192617 0.0193121 0.0193629 0.019414 0.0194655 0.0195173 0.0195692 0.0196213 0.0196732 0.0197246 0.0197749 0.0198236 0.0198701 0.0199144 0.0199571 0.0199996 0.0200424 0.020086 0.0201304 0.0201754 0.0202208 0.0202666 0.0203125 0.0203584 0.0204043 0.0204501 0.0204956 0.0205408 0.0205857 0.0206302 0.0206742 0.0207177 0.0207607 0.020803 0.0208447 0.0208857 0.0209259 0.0209654 0.0210041 0.0210419 0.0210789 0.021115 0.0211501 0.0211843 0.0212175 0.0212497 0.0212809 0.0213111 0.0213401 0.0213681 0.021395 0.0214208 0.0214454 0.0214688 0.0214911 0.0215123 0.0215322 0.021551 0.0215685 0.0215848 0.0215999 0.0216138 0.0216264 0.0216378 0.021648 0.0216569 0.0216646 0.0216711 0.0216763 0.0216803 0.0216831 0.0216847 0.021685 0.0216842 0.0216821 0.0216789 0.0216745 0.021669 0.0216623 0.0216546 0.0216457 0.0216357 0.0216247 0.0216127 0.0215996 0.0215856 0.0215706 0.0215546 0.0215378 0.0215201 0.0215015 0.0214821 0.021462 0.0214411 0.0214194 0.0213971 0.0213742 0.0213507 0.0213266 0.021302 0.0212768 0.0212513 0.0212253 0.021199 0.0211723 0.0211453 0.0211181 0.0210907 0.0210631 0.0210354 0.0210076 0.0209797 0.0209518 0.020924 0.0208962 0.0208685 0.020841 0.0208136 0.0207864 0.0207595 0.0207328 0.0207064 0.0206804 0.0206547 0.0206295 0.0206046 0.0205801 0.0205561 0.0205326 0.0205096 0.0204871 0.0204652 0.0204437 0.0204229 0.0204026 0.0203828 0.0203637 0.0203452 0.0203272 0.0203099 0.0202931 0.0202769 0.0202614 0.0202464 0.0202321 0.0202183 0.0202051 0.0201925 0.0201804 0.0201689 0.020158 0.0201475 0.0201376 0.0201282 0.0201193 0.0201109 0.0201029 0.0200954 0.0200883 0.0200817 0.0200754 0.0200695 0.020064 0.0200589 0.0200541 0.0200496 0.0200454 0.0200416 0.020038 0.0200346 0.0200315 0.0200287 0.020026 0.0200236 0.0200214 0.0200193 0.0200174 0.0200157 0.0200141 0.0200127 0.0200114 0.0200102 0.0200091 0.0200082 0.0200073 0.0200065 0.0200058 0.0200051 0.0200045 0.020004 0.0200035 0.0200031 0.0200028 0.0200024 0.0200021 0.0200019 0.0200016 0.0200014 0.0200013 0.0200011 0.020001 0.0200008 0.0200007 0.0200006 0.0200006 0.0200005 0.0200004 0.0200004 0.0200003 0.0200003 0.0200003 0.0200002 0.0200002 0.0200002 0.0200002 0.0200002 0.0200002 0.0200001 0.0200001 0.0200001 0.0200001 0.0200001 0.0200001 0.0200001 0.0200001 0.0200001 0.0200001 0.0200001 0.0200001 0.0200001 0.0200001 0.0200001 0.0200001 0.0200001 0.0200001 0.0200001 0.02 0.02 0.02 0.02 0.02 0.02 0.0199999 0.0199999 0.0199999 0.0199998 0.0199998 0.0199997 0.0199997 0.0199996 0.0199995 0.0199995 0.0199994 0.0199993 0.0199992 0.0199991 0.019999 0.0199989 0.0199988 0.0199986 0.0199985 0.0199983 0.0199982 0.019998 0.0199978 0.0199976 0.0199973 0.0199971 0.0199968 0.0199966 0.0199963 0.019996 0.0199957 0.0199953 0.019995 0.0199946 0.0199942 0.0199938 0.0199933 0.0199929 0.0199924 0.0199919 0.0199913 0.0199908 0.0199902 0.0199896 0.0199889 0.0199883 0.0199876 0.0199869 0.0199862 0.0199854 0.0199846 0.0199838 0.019983 0.0199821 0.0199812 0.0199803 0.0199793 0.0199783 0.0199773 0.0199763 0.0199753 0.0199742 0.0199731 0.019972 0.0199709 0.0199697 0.0199685 0.0199673 0.0199661 0.0199649 0.0199637 0.0199624 0.0199612 0.0199599 0.0199586 0.0199574 0.0199561 0.0199548 0.0199535 0.0199522 0.019951 0.0199497 0.0199485 0.0199473 0.019946 0.0199449 0.0199437 0.0199426 0.0199415 0.0199404 0.0199394 0.0199384 0.0199374 0.0199365 0.0199356 0.0199348 0.0199341 0.0199334 0.0199328 0.0199322 0.0199317 0.0199313 0.0199309 0.0199307 0.0199305 0.0199304 0.0199304 0.0199304 0.0199306 0.0199309 0.0199312 0.0199317 0.0199322 0.0199329 0.0199336 0.0199345 0.0199355 0.0199365 0.0199377 0.019939 0.0199404 0.0199419 0.0199436 0.0199453 0.0199471 0.0199491 0.0199511 0.0199533 0.0199556 0.0199579 0.0199604 0.019963 0.0199657 0.0199684 0.0199713 0.0199742 0.0199772 0.0199803 0.0199835 0.0199867 0.0199901 0.0199934 0.0199969 0.0200003 0.0200039 0.0200074 0.020011 0.0200146 0.0200183 0.0200219 0.0200256 0.0200293 0.0200329 0.0200366 0.0200402 0.0200437 0.0200473 0.0200508 0.0200542 0.0200576 0.0200609 0.0200641 0.0200672 0.0200703 0.0200732 0.020076 0.0200787 0.0200813 0.0200838 0.020086 0.0200882 0.0200902 0.020092 0.0200936 0.0200951 0.0200964 0.0200975 0.0200984 0.020099 0.0200995 0.0200998 0.0200998 0.0200997 0.0200993 0.0200986 0.0200978 0.0200967 0.0200954 0.0200938 0.020092 0.02009 0.0200877 0.0200852 0.0200825 0.0200795 0.0200763 0.0200729 0.0200693 0.0200655 0.0200615 0.0200572 0.0200528 0.0200482 0.0200434 0.0200385 0.0200334 0.0200281 0.0200228 0.0200173 0.0200117 0.020006 0.0200003 0.0199945 0.0199886 0.0199827 0.0199769 0.019971 0.0199651 0.0199593 0.0199536 0.0199479 0.0199423 0.0199369 0.0199315 0.0199263 0.0199213 0.0199165 0.0199119 0.0199075 0.0199034 0.0198995 0.0198958 0.0198925 0.0198895 0.0198867 0.0198843 0.0198823 0.0198806 0.0198792 0.0198783 0.0198777 0.0198775 0.0198777 0.0198783 0.0198792 0.0198806 0.0198824 0.0198845 0.0198871 0.01989 0.0198933 0.0198969 0.0199009 0.0199051 0.0199097 0.0199146 0.0199197 0.019925 0.0199306 0.0199363 0.0199421 0.0199481 0.0199541 0.0199601 0.0199661 0.0199721 0.019978 0.0199837 0.0199893 0.0199947 0.0199998 0.0200047 0.0200092 0.0200134 0.0200173 0.0200208 0.0200239 0.0200266 0.020029 0.020031 0.0200326 0.020034 0.0200351 0.020036 0.0200367 0.0200375 0.0200382 0.0200391 0.0200402 0.0200417 0.0200436 0.0200461 0.0200493 0.0200534 0.0200584 0.0200645 0.0200717 0.0200803 0.0200902 0.0201016 0.0201145 0.020129 0.0201453 0.0201633 0.0201834 0.0202057 0.0202306 0.0202583 0.0202893 0.020324 0.0203629 0.0204063 0.0204546 0.0205078 0.0205659 0.0206283 0.0206942 0.020762 0.0208296 0.0208942 0.0209519 0.0209982 0.0210279 0.0210361 0.0210185 0.0209722 0.0208958 0.0207898 0.0206568 0.0205022 0.0203319 0.0201571 0.0199731 0.0197992 0.0196069 0.019401 0.0191178 0.0186251 0.0180174 0.0168472 0.0149613 0.012165 0.00759253 -4.33681e-19 