# vtk DataFile Version 2.0
iteration 2376
ASCII

DATASET STRUCTURED_POINTS
DIMENSIONS 621 64 1
ORIGIN 0 0 0
SPACING 0.00161031 0.00161031 0.00161031

POINT_DATA 39744
SCALARS P float 1
LOOKUP_TABLE default
0 0 0 0 0 0 0 0 0 0 0 0 0 0 0 0 0 0 0 0 0 0 0 0 0 0 0 0 0 0 0 0 0 0 0 0 0 0 0 0 0 0 0 0 0 0 0 0 0 0 0 0 0 0 0 0 0 0 0 0 0 0 0 0 0 0 0 0 0 0 0 0 0 0 0 0 0 0 0 0 0 0 0 0 0 0 0 0 0 0 0 0 0 0 0 0 0 0 0 0 0 0 0 0 0 0 0 0 0 0 0 0 0 0 0 0 0 0 0 0 0 0 0 0 0 0 0 0 0 0 0 0 0 0 0 0 0 0 0 0 0 0 0 0 0 0 0 0 0 0 0 0 0 0 0 0 0 0 0 0 0 0 0 0 0 0 0 0 0 0 0 0 0 0 0 0 0 0 0 0 0 0 0 0 0 0 0 0 0 0 0 0 0 0 0 0 0 0 0 0 0 0 0 0 0 0 0 0 0 0 0 0 0 0 0 0 0 0 0 0 0 0 0 0 0 0 0 0 0 0 0 0 0 0 0 0 0 0 0 0 0 0 0 0 0 0 0 0 0 0 0 0 0 0 0 0 0 0 0 0 0 0 0 0 0 0 0 0 0 0 0 0 0 0 0 0 0 0 0 0 0 0 0 0 0 0 0 0 0 0 0 0 0 0 0 0 0 0 0 0 0 0 0 0 0 0 0 0 0 0 0 0 0 0 0 0 0 0 0 0 0 0 0 0 0 0 0 0 0 0 0 0 0 0 0 0 0 0 0 0 0 0 0 0 0 0 0 0 0 0 0 0 0 0 0 0 0 0 0 0 0 0 0 0 0 0 0 0 0 0 0 0 0 0 0 0 0 0 0 0 0 0 0 0 0 0 0 0 0 0 0 0 0 0 0 0 0 0 0 0 0 0 0 0 0 0 0 0 0 0 0 0 0 0 0 0 0 0 0 0 0 0 0 0 0 0 0 0 0 0 0 0 0 0 0 0 0 0 0 0 0 0 0 0 0 0 0 0 0 0 0 0 0 0 0 0 0 0 0 0 0 0 0 0 0 0 0 0 0 0 0 0 0 0 0 0 0 0 0 0 0 0 0 0 0 0 0 0 0 0 0 0 0 0 0 0 0 0 0 0 0 0 0 0 0 0 0 0 0 0 0 0 0 0 0 0 0 0 0 0 0 0 0 0 0 0 0 0 0 0 0 0 0 0 0 0 0 0 0 0 0 0 0 0 0 0 0 0 0 0 0 0 0 0 0 0 0 0 0 0 0 0 0 0 0 0 0 0 0 0 0 0 0 0 0 0 0 0 0 0 0 0 0 0 0 0 0 0 0 0 0 0 0 0 0 0 0 0 0 0 0 0 0 0 0 0 0 0 0 0 0 0 0 0 0 0 0 0 0 0 0 
0.0214124 0.0214603 0.0214789 0.0215066 0.0215369 0.0215674 0.0215973 0.0216262 0.0216539 0.0216803 0.0217054 0.0217291 0.0217513 0.0217721 0.0217914 0.0218092 0.0218255 0.0218403 0.0218536 0.0218655 0.0218758 0.0218847 0.0218921 0.021898 0.0219024 0.0219054 0.021907 0.0219071 0.0219059 0.0219032 0.0218991 0.0218936 0.0218868 0.0218786 0.0218691 0.0218583 0.0218461 0.0218327 0.021818 0.0218021 0.0217849 0.0217666 0.0217471 0.0217264 0.0217047 0.0216818 0.0216579 0.021633 0.0216071 0.0215803 0.0215526 0.021524 0.0214946 0.0214644 0.0214335 0.0214019 0.0213696 0.0213368 0.0213034 0.0212696 0.0212353 0.0212006 0.0211657 0.0211304 0.021095 0.0210594 0.0210237 0.020988 0.0209524 0.0209168 0.0208814 0.0208462 0.0208113 0.0207768 0.0207426 0.0207089 0.0206757 0.020643 0.020611 0.0205796 0.020549 0.0205191 0.0204899 0.0204617 0.0204342 0.0204077 0.020382 0.0203573 0.0203336 0.0203108 0.020289 0.0202682 0.0202484 0.0202295 0.0202116 0.0201947 0.0201788 0.0201638 0.0201496 0.0201364 0.0201241 0.0201126 0.0201019 0.020092 0.0200829 0.0200744 0.0200667 0.0200596 0.0200531 0.0200472 0.0200418 0.0200369 0.0200325 0.0200286 0.020025 0.0200218 0.020019 0.0200165 0.0200143 0.0200123 0.0200106 0.020009 0.0200077 0.0200066 0.0200056 0.0200047 0.0200039 0.0200033 0.0200028 0.0200023 0.0200019 0.0200016 0.0200013 0.0200011 0.0200009 0.0200007 0.0200006 0.0200005 0.0200004 0.0200003 0.0200002 0.0200002 0.0200001 0.0200001 0.0200001 0.0200001 0.0200001 0.02 0.02 0.02 0.02 0.02 0.02 0.02 0.02 0.02 0.02 0.02 0.02 0.02 0.02 0.02 0.02 0.02 0.02 0.02 0.02 0.02 0.02 0.02 0.02 0.02 0.02 0.02 0.02 0.02 0.02 0.02 0.02 0.02 0.02 0.02 0.02 0.02 0.02 0.02 0.02 0.02 0.02 0.02 0.02 0.02 0.02 0.02 0.02 0.02 0.02 0.02 0.02 0.02 0.02 0.02 0.02 0.02 0.02 0.02 0.02 0.02 0.0200001 0.0200001 0.0200001 0.0200001 0.0200001 0.0200001 0.0200001 0.0200001 0.0200001 0.0200001 0.0200001 0.0200001 0.0200001 0.0200001 0.0200001 0.0200001 0.0200001 0.0200001 0.0200001 0.0200001 0.0200001 0.0200002 0.0200002 0.0200002 0.0200002 0.0200002 0.0200002 0.0200002 0.0200002 0.0200002 0.0200002 0.0200002 0.0200002 0.0200002 0.0200002 0.0200001 0.0200001 0.0200001 0.0200001 0.0200001 0.02 0.02 0.02 0.0199999 0.0199999 0.0199998 0.0199998 0.0199997 0.0199997 0.0199996 0.0199995 0.0199994 0.0199993 0.0199992 0.0199991 0.0199989 0.0199988 0.0199986 0.0199984 0.0199982 0.019998 0.0199978 0.0199975 0.0199973 0.019997 0.0199967 0.0199964 0.019996 0.0199957 0.0199953 0.0199949 0.0199944 0.0199939 0.0199934 0.0199929 0.0199923 0.0199918 0.0199911 0.0199905 0.0199898 0.0199891 0.0199883 0.0199875 0.0199867 0.0199858 0.0199849 0.019984 0.019983 0.019982 0.019981 0.0199799 0.0199787 0.0199776 0.0199764 0.0199751 0.0199739 0.0199725 0.0199712 0.0199698 0.0199684 0.0199669 0.0199655 0.0199639 0.0199624 0.0199608 0.0199592 0.0199576 0.0199559 0.0199543 0.0199526 0.0199509 0.0199492 0.0199474 0.0199457 0.019944 0.0199422 0.0199405 0.0199388 0.019937 0.0199353 0.0199336 0.019932 0.0199303 0.0199287 0.0199272 0.0199256 0.0199241 0.0199227 0.0199213 0.01992 0.0199187 0.0199175 0.0199164 0.0199154 0.0199144 0.0199136 0.0199128 0.0199121 0.0199116 0.0199111 0.0199108 0.0199106 0.0199105 0.0199105 0.0199107 0.019911 0.0199114 0.019912 0.0199127 0.0199136 0.0199146 0.0199158 0.0199171 0.0199186 0.0199203 0.0199221 0.0199241 0.0199263 0.0199286 0.0199311 0.0199337 0.0199365 0.0199395 0.0199427 0.019946 0.0199494 0.0199531 0.0199568 0.0199607 0.0199648 0.019969 0.0199733 0.0199778 0.0199824 0.0199871 0.0199919 0.0199969 0.0200019 0.020007 0.0200122 0.0200174 0.0200227 0.0200281 0.0200335 0.020039 0.0200444 0.0200499 0.0200554 0.0200609 0.0200663 0.0200717 0.0200771 0.0200824 0.0200876 0.0200928 0.0200978 0.0201028 0.0201076 0.0201123 0.0201169 0.0201213 0.0201255 0.0201295 0.0201333 0.020137 0.0201404 0.0201436 0.0201465 0.0201492 0.0201516 0.0201538 0.0201556 0.0201572 0.0201585 0.0201594 0.0201601 0.0201604 0.0201604 0.02016 0.0201594 0.0201583 0.020157 0.0201552 0.0201531 0.0201507 0.0201479 0.0201448 0.0201413 0.0201375 0.0201333 0.0201288 0.020124 0.0201188 0.0201133 0.0201076 0.0201015 0.0200951 0.0200884 0.0200815 0.0200744 0.020067 0.0200594 0.0200515 0.0200435 0.0200354 0.0200271 0.0200187 0.0200101 0.0200015 0.0199929 0.0199842 0.0199756 0.019967 0.0199584 0.01995 0.0199417 0.0199335 0.0199255 0.0199178 0.0199103 0.0199031 0.0198963 0.0198898 0.0198838 0.0198782 0.019873 0.0198684 0.0198643 0.0198607 0.0198578 0.0198555 0.0198539 0.0198529 0.0198527 0.0198532 0.0198544 0.0198564 0.0198591 0.0198627 0.019867 0.0198721 0.019878 0.0198847 0.0198921 0.0199003 0.0199093 0.019919 0.0199294 0.0199406 0.0199523 0.0199647 0.0199778 0.0199913 0.0200054 0.02002 0.020035 0.0200503 0.020066 0.0200819 0.0200979 0.020114 0.0201301 0.020146 0.0201618 0.0201772 0.0201922 0.0202067 0.0202205 0.0202336 0.0202458 0.020257 0.0202672 0.0202762 0.020284 0.0202904 0.0202955 0.0202992 0.0203015 0.0203023 0.0203016 0.0202995 0.0202958 0.0202907 0.0202842 0.0202761 0.0202666 0.0202557 0.0202432 0.0202292 0.0202136 0.0201964 0.0201774 0.0201567 0.0201339 0.020109 0.0200815 0.020051 0.020017 0.0199785 0.0199346 0.0198837 0.0198245 0.019755 0.0196733 0.0195775 0.0194654 0.0193353 0.0191852 0.0190137 0.0188191 0.0186 0.0183554 0.018084 0.0177851 0.0174584 0.017104 0.0167253 0.0164072 0.016865 0 0 0 0 0 0 0 0 0 0 0 0 0 0 0 0 0 0 0 0 0 0 0 0 0 0 0 0 0 0 0 0 0 0 0 0 0 0 0 0 0 0 0 0 0 0 0 0 0 0 0 0 0 0 
0.0214124 0.0214518 0.0214807 0.0215105 0.0215409 0.0215711 0.0216007 0.0216293 0.0216568 0.021683 0.0217079 0.0217314 0.0217535 0.0217741 0.0217933 0.0218109 0.0218271 0.0218418 0.021855 0.0218667 0.0218769 0.0218856 0.0218929 0.0218987 0.021903 0.0219059 0.0219073 0.0219073 0.0219059 0.0219031 0.0218989 0.0218933 0.0218863 0.021878 0.0218683 0.0218574 0.0218451 0.0218315 0.0218167 0.0218006 0.0217833 0.0217649 0.0217452 0.0217244 0.0217026 0.0216796 0.0216556 0.0216305 0.0216045 0.0215776 0.0215498 0.0215211 0.0214915 0.0214612 0.0214302 0.0213985 0.0213662 0.0213333 0.0212998 0.0212659 0.0212315 0.0211968 0.0211618 0.0211265 0.021091 0.0210554 0.0210197 0.0209839 0.0209483 0.0209127 0.0208773 0.0208421 0.0208073 0.0207727 0.0207386 0.0207049 0.0206718 0.0206392 0.0206072 0.0205759 0.0205454 0.0205155 0.0204865 0.0204583 0.020431 0.0204045 0.020379 0.0203544 0.0203308 0.0203081 0.0202865 0.0202658 0.0202461 0.0202273 0.0202096 0.0201928 0.0201769 0.020162 0.020148 0.0201349 0.0201227 0.0201113 0.0201007 0.0200909 0.0200818 0.0200735 0.0200658 0.0200588 0.0200524 0.0200465 0.0200412 0.0200364 0.020032 0.0200281 0.0200246 0.0200215 0.0200187 0.0200162 0.020014 0.0200121 0.0200104 0.0200089 0.0200076 0.0200064 0.0200055 0.0200046 0.0200039 0.0200032 0.0200027 0.0200023 0.0200019 0.0200015 0.0200013 0.020001 0.0200008 0.0200007 0.0200006 0.0200004 0.0200004 0.0200003 0.0200002 0.0200002 0.0200001 0.0200001 0.0200001 0.0200001 0.0200001 0.02 0.02 0.02 0.02 0.02 0.02 0.02 0.02 0.02 0.02 0.02 0.02 0.02 0.02 0.02 0.02 0.02 0.02 0.02 0.02 0.02 0.02 0.02 0.02 0.02 0.02 0.02 0.02 0.02 0.02 0.02 0.02 0.02 0.02 0.02 0.02 0.02 0.02 0.02 0.02 0.02 0.02 0.02 0.02 0.02 0.02 0.02 0.02 0.02 0.02 0.02 0.02 0.02 0.02 0.02 0.02 0.02 0.02 0.02 0.02 0.02 0.02 0.0200001 0.0200001 0.0200001 0.0200001 0.0200001 0.0200001 0.0200001 0.0200001 0.0200001 0.0200001 0.0200001 0.0200001 0.0200001 0.0200001 0.0200001 0.0200001 0.0200001 0.0200001 0.0200001 0.0200001 0.0200002 0.0200002 0.0200002 0.0200002 0.0200002 0.0200002 0.0200002 0.0200002 0.0200002 0.0200002 0.0200002 0.0200002 0.0200002 0.0200001 0.0200001 0.0200001 0.0200001 0.0200001 0.0200001 0.02 0.02 0.02 0.0199999 0.0199999 0.0199998 0.0199998 0.0199997 0.0199997 0.0199996 0.0199995 0.0199994 0.0199993 0.0199992 0.0199991 0.0199989 0.0199988 0.0199986 0.0199984 0.0199982 0.019998 0.0199978 0.0199976 0.0199973 0.019997 0.0199967 0.0199964 0.019996 0.0199957 0.0199953 0.0199949 0.0199944 0.019994 0.0199935 0.0199929 0.0199924 0.0199918 0.0199912 0.0199905 0.0199898 0.0199891 0.0199884 0.0199876 0.0199868 0.0199859 0.019985 0.0199841 0.0199831 0.0199821 0.019981 0.01998 0.0199788 0.0199777 0.0199765 0.0199752 0.019974 0.0199726 0.0199713 0.0199699 0.0199685 0.0199671 0.0199656 0.0199641 0.0199625 0.0199609 0.0199593 0.0199577 0.0199561 0.0199544 0.0199527 0.019951 0.0199493 0.0199476 0.0199459 0.0199441 0.0199424 0.0199406 0.0199389 0.0199372 0.0199355 0.0199338 0.0199321 0.0199305 0.0199289 0.0199273 0.0199258 0.0199243 0.0199228 0.0199215 0.0199201 0.0199189 0.0199177 0.0199165 0.0199155 0.0199145 0.0199137 0.0199129 0.0199122 0.0199116 0.0199112 0.0199108 0.0199106 0.0199105 0.0199105 0.0199106 0.0199109 0.0199113 0.0199119 0.0199126 0.0199134 0.0199144 0.0199156 0.0199169 0.0199184 0.01992 0.0199218 0.0199237 0.0199259 0.0199282 0.0199306 0.0199332 0.019936 0.019939 0.0199421 0.0199453 0.0199487 0.0199523 0.0199561 0.0199599 0.0199639 0.0199681 0.0199724 0.0199768 0.0199814 0.019986 0.0199908 0.0199957 0.0200006 0.0200057 0.0200108 0.020016 0.0200213 0.0200266 0.020032 0.0200374 0.0200428 0.0200482 0.0200536 0.0200591 0.0200645 0.0200698 0.0200751 0.0200804 0.0200856 0.0200907 0.0200957 0.0201006 0.0201054 0.02011 0.0201145 0.0201189 0.0201231 0.0201271 0.0201309 0.0201344 0.0201378 0.020141 0.0201439 0.0201465 0.0201489 0.020151 0.0201529 0.0201544 0.0201557 0.0201566 0.0201573 0.0201576 0.0201575 0.0201572 0.0201565 0.0201555 0.0201541 0.0201524 0.0201503 0.0201479 0.0201451 0.020142 0.0201385 0.0201347 0.0201306 0.0201261 0.0201213 0.0201161 0.0201107 0.0201049 0.0200989 0.0200925 0.0200859 0.020079 0.0200719 0.0200646 0.020057 0.0200492 0.0200413 0.0200332 0.0200249 0.0200165 0.0200081 0.0199995 0.0199909 0.0199823 0.0199737 0.0199652 0.0199567 0.0199482 0.01994 0.0199318 0.0199239 0.0199162 0.0199088 0.0199017 0.0198949 0.0198884 0.0198824 0.0198768 0.0198717 0.019867 0.0198629 0.0198594 0.0198564 0.0198541 0.0198525 0.0198515 0.0198512 0.0198516 0.0198528 0.0198547 0.0198574 0.0198608 0.0198651 0.0198701 0.0198759 0.0198824 0.0198898 0.0198979 0.0199067 0.0199163 0.0199266 0.0199376 0.0199492 0.0199615 0.0199744 0.0199879 0.0200018 0.0200163 0.0200311 0.0200463 0.0200619 0.0200776 0.0200935 0.0201095 0.0201255 0.0201414 0.020157 0.0201724 0.0201873 0.0202017 0.0202155 0.0202285 0.0202407 0.020252 0.0202621 0.0202712 0.020279 0.0202855 0.0202907 0.0202945 0.0202968 0.0202977 0.0202972 0.0202952 0.0202917 0.0202867 0.0202803 0.0202725 0.0202631 0.0202523 0.02024 0.0202262 0.0202108 0.0201938 0.0201751 0.0201545 0.020132 0.0201073 0.0200801 0.02005 0.0200163 0.0199782 0.0199346 0.0198842 0.0198255 0.0197566 0.0196755 0.0195803 0.019469 0.0193395 0.0191902 0.0190192 0.018825 0.0186063 0.0183617 0.0180902 0.0177909 0.0174639 0.0171102 0.0167381 0.0164197 0.016328 0.016045 0.0154055 0.014921 0.014497 0.0139042 0.0130878 0.0125424 0.0141003 0 0 0 0 0 0 0 0 0 0 0 0 0 0 0 0 0 0 0 0 0 0 0 0 0 0 0 0 0 0 0 0 0 0 0 0 0 0 0 0 0 0 0 0 0 0 
0.0214124 0.0214494 0.0214813 0.0215123 0.0215429 0.0215731 0.0216025 0.021631 0.0216583 0.0216845 0.0217093 0.0217327 0.0217547 0.0217753 0.0217944 0.021812 0.0218281 0.0218428 0.0218559 0.0218676 0.0218777 0.0218864 0.0218936 0.0218994 0.0219036 0.0219065 0.0219078 0.0219078 0.0219063 0.0219035 0.0218992 0.0218936 0.0218866 0.0218782 0.0218685 0.0218575 0.0218451 0.0218315 0.0218166 0.0218005 0.0217832 0.0217647 0.021745 0.0217241 0.0217022 0.0216792 0.0216551 0.02163 0.021604 0.021577 0.0215491 0.0215203 0.0214907 0.0214604 0.0214293 0.0213975 0.0213652 0.0213322 0.0212987 0.0212647 0.0212303 0.0211955 0.0211605 0.0211251 0.0210896 0.0210539 0.0210182 0.0209825 0.0209468 0.0209112 0.0208758 0.0208406 0.0208057 0.0207711 0.020737 0.0207033 0.0206702 0.0206376 0.0206056 0.0205744 0.0205438 0.020514 0.020485 0.0204568 0.0204295 0.0204031 0.0203776 0.0203531 0.0203295 0.0203069 0.0202852 0.0202646 0.0202449 0.0202262 0.0202085 0.0201918 0.020176 0.0201611 0.0201472 0.0201341 0.0201219 0.0201106 0.0201 0.0200903 0.0200813 0.020073 0.0200653 0.0200583 0.0200519 0.0200461 0.0200409 0.0200361 0.0200318 0.0200279 0.0200244 0.0200213 0.0200185 0.0200161 0.0200139 0.020012 0.0200103 0.0200088 0.0200075 0.0200064 0.0200054 0.0200046 0.0200038 0.0200032 0.0200027 0.0200022 0.0200018 0.0200015 0.0200013 0.020001 0.0200008 0.0200007 0.0200005 0.0200004 0.0200004 0.0200003 0.0200002 0.0200002 0.0200001 0.0200001 0.0200001 0.0200001 0.0200001 0.02 0.02 0.02 0.02 0.02 0.02 0.02 0.02 0.02 0.02 0.02 0.02 0.02 0.02 0.02 0.02 0.02 0.02 0.02 0.02 0.02 0.02 0.02 0.02 0.02 0.02 0.02 0.02 0.02 0.02 0.02 0.02 0.02 0.02 0.02 0.02 0.02 0.02 0.02 0.02 0.02 0.02 0.02 0.02 0.02 0.02 0.02 0.02 0.02 0.02 0.02 0.02 0.02 0.02 0.02 0.02 0.02 0.02 0.02 0.02 0.02 0.02 0.0200001 0.0200001 0.0200001 0.0200001 0.0200001 0.0200001 0.0200001 0.0200001 0.0200001 0.0200001 0.0200001 0.0200001 0.0200001 0.0200001 0.0200001 0.0200001 0.0200001 0.0200001 0.0200001 0.0200001 0.0200001 0.0200002 0.0200002 0.0200002 0.0200002 0.0200002 0.0200002 0.0200002 0.0200002 0.0200002 0.0200002 0.0200002 0.0200002 0.0200001 0.0200001 0.0200001 0.0200001 0.0200001 0.0200001 0.02 0.02 0.02 0.0199999 0.0199999 0.0199998 0.0199998 0.0199997 0.0199997 0.0199996 0.0199995 0.0199994 0.0199993 0.0199992 0.019999 0.0199989 0.0199988 0.0199986 0.0199984 0.0199982 0.019998 0.0199978 0.0199976 0.0199973 0.019997 0.0199967 0.0199964 0.0199961 0.0199957 0.0199953 0.0199949 0.0199944 0.019994 0.0199935 0.019993 0.0199924 0.0199918 0.0199912 0.0199905 0.0199899 0.0199892 0.0199884 0.0199876 0.0199868 0.0199859 0.019985 0.0199841 0.0199832 0.0199821 0.0199811 0.01998 0.0199789 0.0199777 0.0199766 0.0199753 0.0199741 0.0199727 0.0199714 0.01997 0.0199686 0.0199672 0.0199657 0.0199642 0.0199627 0.0199611 0.0199595 0.0199579 0.0199562 0.0199546 0.0199529 0.0199512 0.0199495 0.0199478 0.0199461 0.0199443 0.0199426 0.0199409 0.0199391 0.0199374 0.0199357 0.019934 0.0199324 0.0199307 0.0199291 0.0199276 0.019926 0.0199245 0.0199231 0.0199217 0.0199204 0.0199191 0.0199179 0.0199168 0.0199157 0.0199147 0.0199139 0.0199131 0.0199124 0.0199118 0.0199113 0.019911 0.0199107 0.0199106 0.0199106 0.0199107 0.019911 0.0199113 0.0199119 0.0199126 0.0199134 0.0199144 0.0199155 0.0199168 0.0199182 0.0199198 0.0199216 0.0199235 0.0199256 0.0199278 0.0199302 0.0199328 0.0199356 0.0199385 0.0199415 0.0199447 0.0199481 0.0199516 0.0199553 0.0199591 0.0199631 0.0199671 0.0199714 0.0199757 0.0199802 0.0199848 0.0199895 0.0199943 0.0199992 0.0200041 0.0200092 0.0200143 0.0200195 0.0200247 0.02003 0.0200353 0.0200407 0.020046 0.0200513 0.0200567 0.020062 0.0200672 0.0200724 0.0200776 0.0200827 0.0200877 0.0200926 0.0200974 0.0201021 0.0201067 0.0201111 0.0201153 0.0201194 0.0201233 0.020127 0.0201306 0.0201338 0.0201369 0.0201397 0.0201423 0.0201446 0.0201467 0.0201485 0.0201499 0.0201511 0.020152 0.0201526 0.0201528 0.0201528 0.0201524 0.0201517 0.0201506 0.0201492 0.0201474 0.0201454 0.0201429 0.0201401 0.020137 0.0201336 0.0201298 0.0201256 0.0201212 0.0201164 0.0201113 0.0201059 0.0201001 0.0200941 0.0200879 0.0200813 0.0200745 0.0200674 0.0200601 0.0200527 0.020045 0.0200371 0.0200291 0.0200209 0.0200126 0.0200042 0.0199958 0.0199873 0.0199788 0.0199703 0.0199618 0.0199534 0.0199451 0.019937 0.019929 0.0199212 0.0199136 0.0199063 0.0198992 0.0198925 0.0198862 0.0198803 0.0198747 0.0198697 0.0198651 0.0198611 0.0198576 0.0198547 0.0198524 0.0198508 0.0198498 0.0198495 0.0198499 0.019851 0.0198528 0.0198554 0.0198588 0.0198629 0.0198678 0.0198735 0.0198799 0.0198871 0.019895 0.0199037 0.0199131 0.0199232 0.019934 0.0199454 0.0199575 0.0199701 0.0199833 0.0199971 0.0200112 0.0200259 0.0200408 0.0200561 0.0200716 0.0200873 0.020103 0.0201187 0.0201344 0.0201498 0.0201649 0.0201796 0.0201939 0.0202074 0.0202203 0.0202323 0.0202434 0.0202535 0.0202625 0.0202702 0.0202767 0.0202819 0.0202857 0.0202881 0.0202891 0.0202887 0.0202869 0.0202836 0.0202789 0.0202728 0.0202652 0.0202562 0.0202458 0.020234 0.0202206 0.0202058 0.0201893 0.0201712 0.0201513 0.0201294 0.0201055 0.0200791 0.0200498 0.020017 0.0199799 0.0199373 0.019888 0.0198304 0.0197626 0.0196827 0.0195886 0.0194783 0.0193499 0.0192014 0.0190311 0.0188375 0.018619 0.0183743 0.0181023 0.0178024 0.0174749 0.0171242 0.0167678 0.0164626 0.0162423 0.0159487 0.0154488 0.0149057 0.0143896 0.013777 0.0130698 0.0125008 0.0122671 0.0116938 0.0107371 0.00974669 0.0101188 0 0 0 0 0 0 0 0 0 0 0 0 0 0 0 0 0 0 0 0 0 0 0 0 0 0 0 0 0 0 0 0 0 0 0 0 0 0 0 0 0 3.46945e-18 
0.0214124 0.0214487 0.0214818 0.0215135 0.0215444 0.0215745 0.0216039 0.0216322 0.0216595 0.0216856 0.0217103 0.0217337 0.0217557 0.0217762 0.0217953 0.0218129 0.021829 0.0218436 0.0218567 0.0218683 0.0218785 0.0218871 0.0218943 0.0219 0.0219043 0.0219071 0.0219085 0.0219084 0.0219069 0.021904 0.0218997 0.0218941 0.021887 0.0218786 0.0218689 0.0218579 0.0218455 0.0218319 0.021817 0.0218008 0.0217835 0.0217649 0.0217452 0.0217243 0.0217023 0.0216793 0.0216552 0.02163 0.0216039 0.0215769 0.021549 0.0215202 0.0214906 0.0214602 0.021429 0.0213972 0.0213648 0.0213318 0.0212983 0.0212642 0.0212298 0.021195 0.0211599 0.0211245 0.0210889 0.0210532 0.0210174 0.0209817 0.0209459 0.0209103 0.0208749 0.0208397 0.0208048 0.0207702 0.020736 0.0207024 0.0206692 0.0206366 0.0206047 0.0205734 0.0205428 0.020513 0.020484 0.0204558 0.0204285 0.0204022 0.0203767 0.0203522 0.0203286 0.020306 0.0202844 0.0202638 0.0202441 0.0202255 0.0202078 0.0201911 0.0201753 0.0201605 0.0201466 0.0201335 0.0201214 0.0201101 0.0200996 0.0200898 0.0200808 0.0200726 0.0200649 0.020058 0.0200516 0.0200458 0.0200406 0.0200358 0.0200315 0.0200277 0.0200242 0.0200211 0.0200184 0.0200159 0.0200138 0.0200119 0.0200102 0.0200087 0.0200074 0.0200063 0.0200053 0.0200045 0.0200038 0.0200032 0.0200027 0.0200022 0.0200018 0.0200015 0.0200012 0.020001 0.0200008 0.0200007 0.0200005 0.0200004 0.0200003 0.0200003 0.0200002 0.0200002 0.0200001 0.0200001 0.0200001 0.0200001 0.02 0.02 0.02 0.02 0.02 0.02 0.02 0.02 0.02 0.02 0.02 0.02 0.02 0.02 0.02 0.02 0.02 0.02 0.02 0.02 0.02 0.02 0.02 0.02 0.02 0.02 0.02 0.02 0.02 0.02 0.02 0.02 0.02 0.02 0.02 0.02 0.02 0.02 0.02 0.02 0.02 0.02 0.02 0.02 0.02 0.02 0.02 0.02 0.02 0.02 0.02 0.02 0.02 0.02 0.02 0.02 0.02 0.02 0.02 0.02 0.02 0.02 0.02 0.0200001 0.0200001 0.0200001 0.0200001 0.0200001 0.0200001 0.0200001 0.0200001 0.0200001 0.0200001 0.0200001 0.0200001 0.0200001 0.0200001 0.0200001 0.0200001 0.0200001 0.0200001 0.0200001 0.0200001 0.0200001 0.0200001 0.0200002 0.0200002 0.0200002 0.0200002 0.0200002 0.0200002 0.0200002 0.0200002 0.0200002 0.0200002 0.0200001 0.0200001 0.0200001 0.0200001 0.0200001 0.0200001 0.0200001 0.02 0.02 0.02 0.0199999 0.0199999 0.0199998 0.0199998 0.0199997 0.0199996 0.0199996 0.0199995 0.0199994 0.0199993 0.0199992 0.019999 0.0199989 0.0199988 0.0199986 0.0199984 0.0199982 0.019998 0.0199978 0.0199976 0.0199973 0.019997 0.0199967 0.0199964 0.0199961 0.0199957 0.0199953 0.0199949 0.0199945 0.019994 0.0199935 0.019993 0.0199924 0.0199918 0.0199912 0.0199906 0.0199899 0.0199892 0.0199885 0.0199877 0.0199869 0.019986 0.0199851 0.0199842 0.0199832 0.0199822 0.0199812 0.0199801 0.019979 0.0199779 0.0199767 0.0199755 0.0199742 0.0199729 0.0199716 0.0199702 0.0199688 0.0199674 0.0199659 0.0199644 0.0199629 0.0199613 0.0199597 0.0199581 0.0199565 0.0199548 0.0199532 0.0199515 0.0199498 0.0199481 0.0199464 0.0199446 0.0199429 0.0199412 0.0199395 0.0199378 0.0199361 0.0199344 0.0199327 0.0199311 0.0199295 0.0199279 0.0199264 0.0199249 0.0199235 0.0199221 0.0199208 0.0199195 0.0199183 0.0199172 0.0199161 0.0199151 0.0199142 0.0199134 0.0199127 0.0199122 0.0199117 0.0199113 0.019911 0.0199109 0.0199108 0.0199109 0.0199112 0.0199115 0.0199121 0.0199127 0.0199135 0.0199144 0.0199155 0.0199168 0.0199182 0.0199197 0.0199215 0.0199233 0.0199254 0.0199276 0.0199299 0.0199324 0.0199351 0.0199379 0.0199409 0.0199441 0.0199474 0.0199508 0.0199544 0.0199581 0.019962 0.019966 0.0199702 0.0199744 0.0199788 0.0199833 0.0199879 0.0199926 0.0199973 0.0200022 0.0200072 0.0200122 0.0200172 0.0200224 0.0200275 0.0200327 0.0200379 0.0200431 0.0200483 0.0200535 0.0200587 0.0200638 0.0200689 0.0200739 0.0200789 0.0200838 0.0200885 0.0200932 0.0200978 0.0201022 0.0201065 0.0201106 0.0201145 0.0201183 0.0201219 0.0201253 0.0201285 0.0201314 0.0201341 0.0201366 0.0201388 0.0201407 0.0201424 0.0201438 0.0201449 0.0201457 0.0201462 0.0201464 0.0201462 0.0201458 0.020145 0.0201439 0.0201424 0.0201407 0.0201385 0.0201361 0.0201333 0.0201302 0.0201267 0.0201229 0.0201188 0.0201144 0.0201096 0.0201046 0.0200992 0.0200936 0.0200876 0.0200814 0.0200749 0.0200682 0.0200612 0.0200541 0.0200467 0.0200391 0.0200313 0.0200234 0.0200154 0.0200072 0.019999 0.0199907 0.0199823 0.019974 0.0199656 0.0199573 0.0199491 0.019941 0.019933 0.0199251 0.0199175 0.0199101 0.0199029 0.0198961 0.0198895 0.0198834 0.0198776 0.0198722 0.0198673 0.0198628 0.0198589 0.0198555 0.0198526 0.0198504 0.0198488 0.0198478 0.0198474 0.0198478 0.0198488 0.0198506 0.0198531 0.0198563 0.0198603 0.019865 0.0198705 0.0198767 0.0198836 0.0198913 0.0198997 0.0199088 0.0199186 0.0199291 0.0199402 0.0199519 0.0199642 0.0199771 0.0199904 0.0200042 0.0200185 0.0200331 0.0200479 0.020063 0.0200783 0.0200937 0.020109 0.0201243 0.0201393 0.0201541 0.0201685 0.0201824 0.0201957 0.0202083 0.0202201 0.0202309 0.0202408 0.0202496 0.0202573 0.0202637 0.0202688 0.0202727 0.0202751 0.0202762 0.020276 0.0202743 0.0202713 0.0202669 0.0202611 0.020254 0.0202455 0.0202356 0.0202244 0.0202117 0.0201975 0.0201818 0.0201646 0.0201456 0.0201248 0.020102 0.0200768 0.0200489 0.0200175 0.0199819 0.0199409 0.0198934 0.0198375 0.0197715 0.0196935 0.0196013 0.0194928 0.0193661 0.0192192 0.0190504 0.0188579 0.0186402 0.018396 0.018124 0.0178238 0.0174971 0.0171513 0.0168074 0.0164947 0.016212 0.0158931 0.0154326 0.0148892 0.0143314 0.013732 0.0130813 0.0125286 0.0119918 0.0113263 0.0104128 0.00914519 0.0087016 0.00775322 0.00744885 0.0126806 0 0 0 0 0 0 0 0 0 0 0 0 0 0 0 0 0 0 0 0 0 0 0 0 0 0 0 0 0 0 0 0 0 0 0 0 0 0 4.33681e-18 
0.0214124 0.0214485 0.0214823 0.0215145 0.0215456 0.0215758 0.0216051 0.0216334 0.0216606 0.0216865 0.0217112 0.0217346 0.0217565 0.021777 0.0217961 0.0218136 0.0218297 0.0218443 0.0218574 0.021869 0.0218792 0.0218878 0.021895 0.0219007 0.0219049 0.0219077 0.0219091 0.021909 0.0219075 0.0219046 0.0219003 0.0218946 0.0218876 0.0218791 0.0218694 0.0218583 0.021846 0.0218323 0.0218174 0.0218012 0.0217838 0.0217653 0.0217455 0.0217246 0.0217026 0.0216795 0.0216554 0.0216302 0.0216041 0.021577 0.0215491 0.0215202 0.0214906 0.0214601 0.021429 0.0213971 0.0213647 0.0213316 0.021298 0.021264 0.0212295 0.0211946 0.0211594 0.021124 0.0210884 0.0210527 0.0210169 0.0209811 0.0209453 0.0209097 0.0208742 0.020839 0.020804 0.0207694 0.0207353 0.0207016 0.0206684 0.0206358 0.0206038 0.0205725 0.020542 0.0205122 0.0204832 0.020455 0.0204277 0.0204013 0.0203759 0.0203514 0.0203278 0.0203052 0.0202836 0.020263 0.0202434 0.0202248 0.0202071 0.0201904 0.0201747 0.0201599 0.020146 0.020133 0.0201209 0.0201096 0.0200991 0.0200894 0.0200804 0.0200722 0.0200646 0.0200577 0.0200513 0.0200456 0.0200403 0.0200356 0.0200313 0.0200275 0.0200241 0.020021 0.0200182 0.0200158 0.0200137 0.0200118 0.0200101 0.0200086 0.0200074 0.0200063 0.0200053 0.0200045 0.0200038 0.0200031 0.0200026 0.0200022 0.0200018 0.0200015 0.0200012 0.020001 0.0200008 0.0200007 0.0200005 0.0200004 0.0200003 0.0200003 0.0200002 0.0200002 0.0200001 0.0200001 0.0200001 0.0200001 0.02 0.02 0.02 0.02 0.02 0.02 0.02 0.02 0.02 0.02 0.02 0.02 0.02 0.02 0.02 0.02 0.02 0.02 0.02 0.02 0.02 0.02 0.02 0.02 0.02 0.02 0.02 0.02 0.02 0.02 0.02 0.02 0.02 0.02 0.02 0.02 0.02 0.02 0.02 0.02 0.02 0.02 0.02 0.02 0.02 0.02 0.02 0.02 0.02 0.02 0.02 0.02 0.02 0.02 0.02 0.02 0.02 0.02 0.02 0.02 0.02 0.02 0.02 0.02 0.0200001 0.0200001 0.0200001 0.0200001 0.0200001 0.0200001 0.0200001 0.0200001 0.0200001 0.0200001 0.0200001 0.0200001 0.0200001 0.0200001 0.0200001 0.0200001 0.0200001 0.0200001 0.0200001 0.0200001 0.0200001 0.0200001 0.0200002 0.0200002 0.0200002 0.0200002 0.0200002 0.0200002 0.0200002 0.0200001 0.0200001 0.0200001 0.0200001 0.0200001 0.0200001 0.0200001 0.0200001 0.02 0.02 0.02 0.02 0.0199999 0.0199999 0.0199998 0.0199998 0.0199997 0.0199996 0.0199996 0.0199995 0.0199994 0.0199993 0.0199992 0.019999 0.0199989 0.0199987 0.0199986 0.0199984 0.0199982 0.019998 0.0199978 0.0199975 0.0199973 0.019997 0.0199967 0.0199964 0.0199961 0.0199957 0.0199953 0.0199949 0.0199945 0.019994 0.0199935 0.019993 0.0199925 0.0199919 0.0199913 0.0199906 0.01999 0.0199893 0.0199885 0.0199877 0.0199869 0.0199861 0.0199852 0.0199843 0.0199833 0.0199824 0.0199813 0.0199803 0.0199792 0.019978 0.0199768 0.0199756 0.0199744 0.0199731 0.0199718 0.0199704 0.019969 0.0199676 0.0199662 0.0199647 0.0199632 0.0199616 0.01996 0.0199585 0.0199568 0.0199552 0.0199535 0.0199519 0.0199502 0.0199485 0.0199468 0.0199451 0.0199434 0.0199417 0.01994 0.0199383 0.0199366 0.0199349 0.0199333 0.0199316 0.01993 0.0199285 0.019927 0.0199255 0.019924 0.0199227 0.0199213 0.0199201 0.0199189 0.0199177 0.0199167 0.0199157 0.0199148 0.019914 0.0199133 0.0199127 0.0199122 0.0199118 0.0199115 0.0199113 0.0199113 0.0199113 0.0199115 0.0199119 0.0199124 0.019913 0.0199137 0.0199146 0.0199157 0.0199169 0.0199182 0.0199197 0.0199214 0.0199232 0.0199252 0.0199273 0.0199296 0.019932 0.0199346 0.0199374 0.0199403 0.0199434 0.0199466 0.0199499 0.0199534 0.019957 0.0199608 0.0199647 0.0199687 0.0199729 0.0199771 0.0199815 0.0199859 0.0199905 0.0199951 0.0199999 0.0200047 0.0200095 0.0200145 0.0200194 0.0200244 0.0200294 0.0200345 0.0200395 0.0200446 0.0200496 0.0200546 0.0200596 0.0200645 0.0200694 0.0200741 0.0200788 0.0200835 0.0200879 0.0200923 0.0200966 0.0201007 0.0201046 0.0201084 0.020112 0.0201155 0.0201187 0.0201217 0.0201245 0.0201271 0.0201294 0.0201314 0.0201333 0.0201348 0.0201361 0.0201371 0.0201377 0.0201381 0.0201382 0.020138 0.0201375 0.0201366 0.0201355 0.020134 0.0201321 0.02013 0.0201275 0.0201247 0.0201216 0.0201181 0.0201144 0.0201103 0.0201059 0.0201012 0.0200962 0.0200909 0.0200853 0.0200795 0.0200733 0.020067 0.0200603 0.0200535 0.0200465 0.0200392 0.0200318 0.0200242 0.0200164 0.0200085 0.0200006 0.0199925 0.0199844 0.0199762 0.0199681 0.0199599 0.0199518 0.0199438 0.0199359 0.0199281 0.0199205 0.0199131 0.0199059 0.019899 0.0198923 0.019886 0.01988 0.0198744 0.0198692 0.0198645 0.0198602 0.0198564 0.0198531 0.0198503 0.0198481 0.0198465 0.0198455 0.0198451 0.0198454 0.0198463 0.019848 0.0198503 0.0198533 0.0198571 0.0198616 0.0198668 0.0198727 0.0198793 0.0198867 0.0198947 0.0199034 0.0199128 0.0199229 0.0199335 0.0199448 0.0199566 0.019969 0.0199818 0.0199951 0.0200088 0.0200229 0.0200373 0.0200518 0.0200666 0.0200814 0.0200963 0.020111 0.0201256 0.0201399 0.0201539 0.0201673 0.0201802 0.0201924 0.0202039 0.0202145 0.0202241 0.0202327 0.0202402 0.0202465 0.0202516 0.0202554 0.0202579 0.0202591 0.020259 0.0202576 0.0202548 0.0202508 0.0202454 0.0202388 0.0202308 0.0202216 0.020211 0.0201991 0.0201858 0.020171 0.0201548 0.020137 0.0201174 0.020096 0.0200723 0.020046 0.0200164 0.0199827 0.0199439 0.0198985 0.0198449 0.0197814 0.0197058 0.0196161 0.0195102 0.019386 0.0192415 0.0190748 0.0188842 0.0186681 0.0184249 0.0181537 0.0178541 0.017529 0.0171877 0.0168474 0.0165222 0.0161988 0.0158293 0.0153682 0.0148385 0.0142808 0.0137061 0.0130999 0.0124436 0.0118466 0.0110793 0.0101825 0.0092215 0.00808165 0.00704346 0.00638152 0.00595261 0.00980743 0 0 0 0 0 0 0 0 0 0 0 0 0 0 0 0 0 0 0 0 0 0 0 0 0 0 0 0 0 0 0 0 0 0 0 0 0 1.73472e-18 