# vtk DataFile Version 2.0
iteration 2268
ASCII

DATASET STRUCTURED_POINTS
DIMENSIONS 621 64 1
ORIGIN 0 0 0
SPACING 0.00161031 0.00161031 0.00161031

POINT_DATA 39744
SCALARS P float 1
LOOKUP_TABLE default
0 0 0 0 0 0 0 0 0 0 0 0 0 0 0 0 0 0 0 0 0 0 0 0 0 0 0 0 0 0 0 0 0 0 0 0 0 0 0 0 0 0 0 0 0 0 0 0 0 0 0 0 0 0 0 0 0 0 0 0 0 0 0 0 0 0 0 0 0 0 0 0 0 0 0 0 0 0 0 0 0 0 0 0 0 0 0 0 0 0 0 0 0 0 0 0 0 0 0 0 0 0 0 0 0 0 0 0 0 0 0 0 0 0 0 0 0 0 0 0 0 0 0 0 0 0 0 0 0 0 0 0 0 0 0 0 0 0 0 0 0 0 0 0 0 0 0 0 0 0 0 0 0 0 0 0 0 0 0 0 0 0 0 0 0 0 0 0 0 0 0 0 0 0 0 0 0 0 0 0 0 0 0 0 0 0 0 0 0 0 0 0 0 0 0 0 0 0 0 0 0 0 0 0 0 0 0 0 0 0 0 0 0 0 0 0 0 0 0 0 0 0 0 0 0 0 0 0 0 0 0 0 0 0 0 0 0 0 0 0 0 0 0 0 0 0 0 0 0 0 0 0 0 0 0 0 0 0 0 0 0 0 0 0 0 0 0 0 0 0 0 0 0 0 0 0 0 0 0 0 0 0 0 0 0 0 0 0 0 0 0 0 0 0 0 0 0 0 0 0 0 0 0 0 0 0 0 0 0 0 0 0 0 0 0 0 0 0 0 0 0 0 0 0 0 0 0 0 0 0 0 0 0 0 0 0 0 0 0 0 0 0 0 0 0 0 0 0 0 0 0 0 0 0 0 0 0 0 0 0 0 0 0 0 0 0 0 0 0 0 0 0 0 0 0 0 0 0 0 0 0 0 0 0 0 0 0 0 0 0 0 0 0 0 0 0 0 0 0 0 0 0 0 0 0 0 0 0 0 0 0 0 0 0 0 0 0 0 0 0 0 0 0 0 0 0 0 0 0 0 0 0 0 0 0 0 0 0 0 0 0 0 0 0 0 0 0 0 0 0 0 0 0 0 0 0 0 0 0 0 0 0 0 0 0 0 0 0 0 0 0 0 0 0 0 0 0 0 0 0 0 0 0 0 0 0 0 0 0 0 0 0 0 0 0 0 0 0 0 0 0 0 0 0 0 0 0 0 0 0 0 0 0 0 0 0 0 0 0 0 0 0 0 0 0 0 0 0 0 0 0 0 0 0 0 0 0 0 0 0 0 0 0 0 0 0 0 0 0 0 0 0 0 0 0 0 0 0 0 0 0 0 0 0 0 0 0 0 0 0 0 0 0 0 0 0 0 0 0 0 0 0 0 0 0 0 0 0 0 0 0 0 0 0 0 0 0 0 0 0 0 0 0 0 0 0 0 0 0 0 0 0 0 0 0 0 0 0 0 0 0 
0.0219071 0.0219192 0.0218835 0.0218558 0.02183 0.0218042 0.0217777 0.0217501 0.0217215 0.0216918 0.0216609 0.0216289 0.0215959 0.0215618 0.0215268 0.0214907 0.0214538 0.021416 0.0213774 0.021338 0.021298 0.0212573 0.0212161 0.0211745 0.0211324 0.0210901 0.0210476 0.021005 0.0209624 0.0209198 0.0208774 0.0208353 0.0207936 0.0207523 0.0207116 0.0206716 0.0206323 0.0205939 0.0205564 0.0205199 0.0204845 0.0204502 0.0204171 0.0203854 0.0203549 0.0203258 0.020298 0.0202717 0.0202468 0.0202234 0.0202014 0.0201809 0.0201618 0.0201441 0.0201278 0.0201128 0.0200991 0.0200866 0.0200753 0.0200652 0.0200561 0.020048 0.0200409 0.0200346 0.0200291 0.0200243 0.0200202 0.0200167 0.0200137 0.0200111 0.020009 0.0200072 0.0200057 0.0200045 0.0200035 0.0200028 0.0200021 0.0200016 0.0200012 0.0200009 0.0200007 0.0200005 0.0200004 0.0200003 0.0200002 0.0200001 0.0200001 0.0200001 0.02 0.02 0.02 0.02 0.02 0.02 0.02 0.02 0.02 0.02 0.02 0.02 0.02 0.02 0.02 0.02 0.02 0.02 0.02 0.02 0.02 0.02 0.02 0.02 0.02 0.02 0.02 0.02 0.02 0.02 0.02 0.02 0.02 0.02 0.02 0.02 0.02 0.02 0.02 0.02 0.02 0.02 0.02 0.02 0.02 0.02 0.02 0.02 0.02 0.02 0.02 0.02 0.02 0.02 0.02 0.02 0.02 0.02 0.02 0.02 0.02 0.02 0.02 0.02 0.02 0.02 0.02 0.02 0.02 0.02 0.02 0.02 0.02 0.02 0.02 0.02 0.02 0.02 0.02 0.02 0.02 0.02 0.02 0.02 0.02 0.02 0.02 0.02 0.02 0.02 0.02 0.02 0.02 0.02 0.02 0.02 0.02 0.02 0.02 0.02 0.02 0.02 0.02 0.02 0.02 0.02 0.02 0.02 0.02 0.02 0.02 0.02 0.02 0.02 0.02 0.02 0.0200001 0.0200001 0.0200001 0.0200001 0.0200001 0.0200001 0.0200001 0.0200001 0.0200001 0.0200001 0.0200001 0.0200001 0.0200002 0.0200002 0.0200002 0.0200002 0.0200002 0.0200003 0.0200003 0.0200003 0.0200003 0.0200004 0.0200004 0.0200004 0.0200005 0.0200005 0.0200006 0.0200006 0.0200007 0.0200008 0.0200008 0.0200009 0.020001 0.0200011 0.0200012 0.0200013 0.0200014 0.0200015 0.0200017 0.0200018 0.020002 0.0200021 0.0200023 0.0200025 0.0200027 0.0200029 0.0200032 0.0200034 0.0200037 0.020004 0.0200043 0.0200047 0.020005 0.0200054 0.0200058 0.0200062 0.0200067 0.0200071 0.0200076 0.0200082 0.0200087 0.0200093 0.0200099 0.0200106 0.0200113 0.020012 0.0200127 0.0200135 0.0200144 0.0200152 0.0200161 0.0200171 0.020018 0.0200191 0.0200201 0.0200212 0.0200223 0.0200235 0.0200247 0.020026 0.0200273 0.0200286 0.02003 0.0200314 0.0200329 0.0200344 0.0200359 0.0200375 0.0200391 0.0200408 0.0200424 0.0200442 0.0200459 0.0200477 0.0200495 0.0200513 0.0200532 0.0200551 0.020057 0.020059 0.0200609 0.0200629 0.0200649 0.0200669 0.020069 0.020071 0.0200731 0.0200751 0.0200772 0.0200792 0.0200813 0.0200833 0.0200853 0.0200874 0.0200894 0.0200913 0.0200933 0.0200952 0.0200971 0.020099 0.0201008 0.0201026 0.0201044 0.0201061 0.0201078 0.0201095 0.0201111 0.0201126 0.0201141 0.0201156 0.0201169 0.0201183 0.0201196 0.0201208 0.0201219 0.020123 0.0201241 0.0201251 0.020126 0.0201268 0.0201276 0.0201283 0.020129 0.0201296 0.0201302 0.0201306 0.0201311 0.0201315 0.0201318 0.020132 0.0201323 0.0201325 0.0201326 0.0201327 0.0201327 0.0201328 0.0201328 0.0201327 0.0201327 0.0201326 0.0201325 0.0201324 0.0201322 0.0201321 0.020132 0.0201319 0.0201317 0.0201316 0.0201315 0.0201314 0.0201314 0.0201313 0.0201313 0.0201313 0.0201314 0.0201314 0.0201316 0.0201317 0.0201319 0.0201322 0.0201325 0.0201328 0.0201332 0.0201336 0.0201341 0.0201347 0.0201353 0.0201359 0.0201366 0.0201374 0.0201382 0.0201391 0.02014 0.020141 0.0201421 0.0201432 0.0201443 0.0201455 0.0201467 0.020148 0.0201494 0.0201508 0.0201522 0.0201537 0.0201552 0.0201567 0.0201583 0.02016 0.0201616 0.0201633 0.0201651 0.0201668 0.0201687 0.0201705 0.0201724 0.0201743 0.0201762 0.0201782 0.0201802 0.0201822 0.0201843 0.0201863 0.0201885 0.0201906 0.0201928 0.0201951 0.0201974 0.0201997 0.0202021 0.0202045 0.020207 0.0202096 0.0202122 0.0202149 0.0202177 0.0202206 0.0202235 0.0202266 0.0202298 0.0202331 0.0202365 0.0202401 0.0202438 0.0202477 0.0202518 0.020256 0.0202605 0.0202652 0.0202701 0.0202752 0.0202806 0.0202862 0.0202921 0.0202983 0.0203047 0.0203115 0.0203185 0.0203258 0.0203333 0.0203412 0.0203495 0.020358 0.0203669 0.0203762 0.0203857 0.0203957 0.020406 0.0204167 0.0204278 0.0204392 0.020451 0.020463 0.0204754 0.0204881 0.0205009 0.0205139 0.0205271 0.0205402 0.0205534 0.0205664 0.0205792 0.0205916 0.0206036 0.020615 0.0206256 0.0206353 0.0206439 0.0206513 0.0206573 0.0206618 0.0206645 0.0206654 0.0206643 0.0206612 0.0206558 0.0206483 0.0206385 0.0206264 0.0206121 0.0205958 0.0205774 0.0205572 0.0205353 0.020512 0.0204875 0.0204621 0.0204361 0.0204097 0.0203832 0.020357 0.0203311 0.0203059 0.0202813 0.0202576 0.0202347 0.0202124 0.0201905 0.0201686 0.0201459 0.0201216 0.0200942 0.020062 0.0200229 0.019974 0.0199118 0.0198321 0.0197302 0.019601 0.0194372 0.0192293 0.0189688 0.0186715 0.0183917 0.0183256 0.0184047 0.0206927 0 0 0 0 0 0 0 0 0 0 0 0 0 0 0 0 0 0 0 0 0 0 0 0 0 0 0 0 0 0 0 0 0 0 0 0 0 0 0 0 0 0 0 0 0 0 0 0 0 0 0 0 0 0 0 0 0 0 0 0 0 0 0 0 0 0 0 0 0 0 0 0 0 0 0 0 0 0 0 0 0 
0.0219071 0.0219009 0.0218776 0.0218529 0.0218277 0.0218019 0.0217753 0.0217475 0.0217188 0.0216889 0.0216578 0.0216257 0.0215926 0.0215583 0.0215231 0.021487 0.0214499 0.021412 0.0213733 0.0213338 0.0212937 0.021253 0.0212117 0.02117 0.0211279 0.0210855 0.021043 0.0210003 0.0209576 0.0209151 0.0208727 0.0208306 0.0207888 0.0207476 0.0207069 0.020667 0.0206277 0.0205894 0.020552 0.0205155 0.0204802 0.0204461 0.0204132 0.0203815 0.0203512 0.0203222 0.0202947 0.0202685 0.0202438 0.0202206 0.0201988 0.0201785 0.0201595 0.020142 0.0201259 0.0201111 0.0200975 0.0200852 0.0200741 0.0200641 0.0200552 0.0200472 0.0200402 0.020034 0.0200286 0.0200239 0.0200198 0.0200164 0.0200134 0.0200109 0.0200088 0.0200071 0.0200056 0.0200044 0.0200035 0.0200027 0.0200021 0.0200016 0.0200012 0.0200009 0.0200007 0.0200005 0.0200004 0.0200003 0.0200002 0.0200001 0.0200001 0.0200001 0.02 0.02 0.02 0.02 0.02 0.02 0.02 0.02 0.02 0.02 0.02 0.02 0.02 0.02 0.02 0.02 0.02 0.02 0.02 0.02 0.02 0.02 0.02 0.02 0.02 0.02 0.02 0.02 0.02 0.02 0.02 0.02 0.02 0.02 0.02 0.02 0.02 0.02 0.02 0.02 0.02 0.02 0.02 0.02 0.02 0.02 0.02 0.02 0.02 0.02 0.02 0.02 0.02 0.02 0.02 0.02 0.02 0.02 0.02 0.02 0.02 0.02 0.02 0.02 0.02 0.02 0.02 0.02 0.02 0.02 0.02 0.02 0.02 0.02 0.02 0.02 0.02 0.02 0.02 0.02 0.02 0.02 0.02 0.02 0.02 0.02 0.02 0.02 0.02 0.02 0.02 0.02 0.02 0.02 0.02 0.02 0.02 0.02 0.02 0.02 0.02 0.02 0.02 0.02 0.02 0.02 0.02 0.02 0.02 0.02 0.02 0.02 0.02 0.02 0.02 0.02 0.0200001 0.0200001 0.0200001 0.0200001 0.0200001 0.0200001 0.0200001 0.0200001 0.0200001 0.0200001 0.0200001 0.0200001 0.0200002 0.0200002 0.0200002 0.0200002 0.0200002 0.0200003 0.0200003 0.0200003 0.0200003 0.0200004 0.0200004 0.0200004 0.0200005 0.0200005 0.0200006 0.0200006 0.0200007 0.0200008 0.0200008 0.0200009 0.020001 0.0200011 0.0200012 0.0200013 0.0200014 0.0200015 0.0200017 0.0200018 0.020002 0.0200021 0.0200023 0.0200025 0.0200027 0.0200029 0.0200032 0.0200034 0.0200037 0.020004 0.0200043 0.0200046 0.020005 0.0200053 0.0200057 0.0200062 0.0200066 0.0200071 0.0200076 0.0200081 0.0200087 0.0200092 0.0200099 0.0200105 0.0200112 0.0200119 0.0200127 0.0200134 0.0200143 0.0200151 0.020016 0.020017 0.0200179 0.020019 0.02002 0.0200211 0.0200222 0.0200234 0.0200246 0.0200259 0.0200272 0.0200285 0.0200299 0.0200313 0.0200327 0.0200342 0.0200358 0.0200373 0.020039 0.0200406 0.0200423 0.020044 0.0200457 0.0200475 0.0200493 0.0200512 0.020053 0.0200549 0.0200569 0.0200588 0.0200608 0.0200628 0.0200648 0.0200668 0.0200688 0.0200708 0.0200729 0.0200749 0.020077 0.020079 0.0200811 0.0200831 0.0200851 0.0200872 0.0200891 0.0200911 0.0200931 0.020095 0.0200969 0.0200988 0.0201006 0.0201024 0.0201042 0.020106 0.0201076 0.0201093 0.0201109 0.0201125 0.020114 0.0201154 0.0201168 0.0201181 0.0201194 0.0201207 0.0201218 0.0201229 0.020124 0.0201249 0.0201259 0.0201267 0.0201275 0.0201282 0.0201289 0.0201295 0.02013 0.0201305 0.020131 0.0201313 0.0201317 0.0201319 0.0201322 0.0201323 0.0201325 0.0201326 0.0201326 0.0201326 0.0201326 0.0201326 0.0201325 0.0201324 0.0201323 0.0201322 0.0201321 0.0201319 0.0201318 0.0201316 0.0201315 0.0201314 0.0201312 0.0201311 0.0201311 0.020131 0.020131 0.020131 0.020131 0.020131 0.0201311 0.0201313 0.0201315 0.0201317 0.020132 0.0201323 0.0201326 0.0201331 0.0201335 0.0201341 0.0201346 0.0201353 0.020136 0.0201367 0.0201375 0.0201384 0.0201393 0.0201402 0.0201412 0.0201423 0.0201434 0.0201446 0.0201458 0.0201471 0.0201484 0.0201498 0.0201512 0.0201526 0.0201541 0.0201557 0.0201573 0.0201589 0.0201605 0.0201622 0.0201639 0.0201657 0.0201675 0.0201693 0.0201712 0.0201731 0.020175 0.020177 0.0201789 0.020181 0.020183 0.0201851 0.0201872 0.0201894 0.0201916 0.0201938 0.0201961 0.0201984 0.0202008 0.0202032 0.0202057 0.0202083 0.0202109 0.0202136 0.0202163 0.0202192 0.0202221 0.0202252 0.0202283 0.0202316 0.020235 0.0202386 0.0202423 0.0202462 0.0202503 0.0202545 0.020259 0.0202636 0.0202685 0.0202737 0.0202791 0.0202847 0.0202906 0.0202968 0.0203032 0.02031 0.0203169 0.0203242 0.0203317 0.0203396 0.0203477 0.0203562 0.020365 0.0203741 0.0203836 0.0203934 0.0204035 0.0204141 0.020425 0.0204362 0.0204478 0.0204597 0.0204718 0.0204843 0.0204969 0.0205098 0.0205227 0.0205357 0.0205486 0.0205614 0.020574 0.0205863 0.0205981 0.0206093 0.0206197 0.0206293 0.0206378 0.020645 0.0206509 0.0206553 0.020658 0.0206588 0.0206577 0.0206545 0.0206492 0.0206417 0.0206319 0.0206199 0.0206057 0.0205894 0.0205711 0.020551 0.0205292 0.020506 0.0204816 0.0204562 0.0204302 0.0204039 0.0203774 0.020351 0.0203251 0.0202997 0.0202749 0.020251 0.0202278 0.0202052 0.0201829 0.0201605 0.0201374 0.0201125 0.0200846 0.020052 0.0200124 0.019963 0.0199003 0.0198202 0.019718 0.0195887 0.0194252 0.019218 0.018962 0.0186757 0.0184427 0.0183872 0.0176569 0.0182136 0.017706 0.0170742 0.0166365 0.0161648 0.0156273 0.0153002 0.0158815 0 0 0 0 0 0 0 0 0 0 0 0 0 0 0 0 0 0 0 0 0 0 0 0 0 0 0 0 0 0 0 0 0 0 0 0 0 0 0 0 0 0 0 0 0 0 0 0 0 0 0 0 0 0 0 0 0 0 0 0 0 0 0 0 0 0 0 0 0 0 0 0 0 0 
0.0219071 0.0218948 0.0218746 0.0218516 0.021827 0.0218014 0.0217747 0.0217469 0.0217181 0.0216881 0.021657 0.0216248 0.0215916 0.0215573 0.0215221 0.0214859 0.0214488 0.0214108 0.021372 0.0213325 0.0212924 0.0212516 0.0212103 0.0211685 0.0211264 0.021084 0.0210414 0.0209987 0.020956 0.0209134 0.020871 0.0208289 0.0207871 0.0207459 0.0207052 0.0206652 0.020626 0.0205876 0.0205502 0.0205138 0.0204784 0.0204443 0.0204114 0.0203798 0.0203495 0.0203205 0.020293 0.0202669 0.0202423 0.0202191 0.0201974 0.0201771 0.0201583 0.0201408 0.0201248 0.02011 0.0200966 0.0200844 0.0200733 0.0200634 0.0200546 0.0200467 0.0200397 0.0200336 0.0200282 0.0200236 0.0200196 0.0200161 0.0200132 0.0200108 0.0200087 0.020007 0.0200055 0.0200044 0.0200034 0.0200027 0.020002 0.0200016 0.0200012 0.0200009 0.0200007 0.0200005 0.0200003 0.0200003 0.0200002 0.0200001 0.0200001 0.0200001 0.02 0.02 0.02 0.02 0.02 0.02 0.02 0.02 0.02 0.02 0.02 0.02 0.02 0.02 0.02 0.02 0.02 0.02 0.02 0.02 0.02 0.02 0.02 0.02 0.02 0.02 0.02 0.02 0.02 0.02 0.02 0.02 0.02 0.02 0.02 0.02 0.02 0.02 0.02 0.02 0.02 0.02 0.02 0.02 0.02 0.02 0.02 0.02 0.02 0.02 0.02 0.02 0.02 0.02 0.02 0.02 0.02 0.02 0.02 0.02 0.02 0.02 0.02 0.02 0.02 0.02 0.02 0.02 0.02 0.02 0.02 0.02 0.02 0.02 0.02 0.02 0.02 0.02 0.02 0.02 0.02 0.02 0.02 0.02 0.02 0.02 0.02 0.02 0.02 0.02 0.02 0.02 0.02 0.02 0.02 0.02 0.02 0.02 0.02 0.02 0.02 0.02 0.02 0.02 0.02 0.02 0.02 0.02 0.02 0.02 0.02 0.02 0.02 0.02 0.02 0.02 0.0200001 0.0200001 0.0200001 0.0200001 0.0200001 0.0200001 0.0200001 0.0200001 0.0200001 0.0200001 0.0200001 0.0200001 0.0200002 0.0200002 0.0200002 0.0200002 0.0200002 0.0200002 0.0200003 0.0200003 0.0200003 0.0200004 0.0200004 0.0200004 0.0200005 0.0200005 0.0200006 0.0200006 0.0200007 0.0200007 0.0200008 0.0200009 0.020001 0.0200011 0.0200012 0.0200013 0.0200014 0.0200015 0.0200016 0.0200018 0.0200019 0.0200021 0.0200023 0.0200025 0.0200027 0.0200029 0.0200031 0.0200034 0.0200036 0.0200039 0.0200042 0.0200046 0.0200049 0.0200053 0.0200057 0.0200061 0.0200065 0.020007 0.0200075 0.020008 0.0200086 0.0200092 0.0200098 0.0200104 0.0200111 0.0200118 0.0200126 0.0200133 0.0200142 0.020015 0.0200159 0.0200168 0.0200178 0.0200188 0.0200199 0.020021 0.0200221 0.0200232 0.0200245 0.0200257 0.020027 0.0200283 0.0200297 0.0200311 0.0200326 0.020034 0.0200356 0.0200371 0.0200387 0.0200404 0.0200421 0.0200438 0.0200455 0.0200473 0.0200491 0.0200509 0.0200528 0.0200547 0.0200566 0.0200586 0.0200605 0.0200625 0.0200645 0.0200665 0.0200685 0.0200706 0.0200726 0.0200747 0.0200767 0.0200787 0.0200808 0.0200828 0.0200848 0.0200868 0.0200888 0.0200908 0.0200927 0.0200947 0.0200966 0.0200985 0.0201003 0.0201021 0.0201039 0.0201056 0.0201073 0.020109 0.0201106 0.0201121 0.0201136 0.0201151 0.0201165 0.0201178 0.0201191 0.0201203 0.0201215 0.0201226 0.0201236 0.0201246 0.0201255 0.0201263 0.0201271 0.0201278 0.0201285 0.0201291 0.0201296 0.0201301 0.0201305 0.0201309 0.0201312 0.0201315 0.0201317 0.0201318 0.020132 0.020132 0.0201321 0.0201321 0.020132 0.020132 0.0201319 0.0201318 0.0201316 0.0201315 0.0201313 0.0201312 0.020131 0.0201308 0.0201306 0.0201305 0.0201303 0.0201302 0.0201301 0.02013 0.0201299 0.0201298 0.0201298 0.0201298 0.0201299 0.02013 0.0201301 0.0201303 0.0201305 0.0201308 0.0201311 0.0201315 0.0201319 0.0201323 0.0201329 0.0201334 0.0201341 0.0201348 0.0201355 0.0201363 0.0201372 0.0201381 0.020139 0.02014 0.0201411 0.0201422 0.0201434 0.0201446 0.0201459 0.0201472 0.0201486 0.02015 0.0201514 0.0201529 0.0201545 0.020156 0.0201577 0.0201593 0.020161 0.0201627 0.0201645 0.0201663 0.0201681 0.02017 0.0201719 0.0201738 0.0201758 0.0201778 0.0201799 0.0201819 0.020184 0.0201862 0.0201884 0.0201906 0.0201929 0.0201952 0.0201976 0.0202 0.0202025 0.020205 0.0202076 0.0202103 0.020213 0.0202159 0.0202188 0.0202219 0.020225 0.0202283 0.0202317 0.0202353 0.020239 0.020243 0.0202471 0.0202514 0.0202559 0.0202606 0.0202656 0.0202708 0.0202762 0.0202819 0.0202879 0.0202941 0.0203006 0.0203074 0.0203144 0.0203216 0.0203292 0.020337 0.0203451 0.0203535 0.0203621 0.0203711 0.0203804 0.02039 0.0204 0.0204103 0.0204209 0.0204319 0.0204432 0.0204548 0.0204667 0.0204788 0.0204911 0.0205036 0.0205163 0.0205289 0.0205415 0.020554 0.0205662 0.0205781 0.0205895 0.0206003 0.0206104 0.0206196 0.0206278 0.0206347 0.0206402 0.0206443 0.0206466 0.0206472 0.0206458 0.0206423 0.0206367 0.020629 0.020619 0.0206068 0.0205925 0.0205761 0.0205577 0.0205376 0.0205157 0.0204925 0.0204681 0.0204428 0.0204169 0.0203906 0.0203642 0.0203379 0.020312 0.0202867 0.020262 0.0202381 0.0202149 0.0201923 0.02017 0.0201476 0.0201244 0.0200994 0.0200714 0.0200385 0.0199987 0.0199492 0.0198863 0.019806 0.0197036 0.0195745 0.0194127 0.0192097 0.0189652 0.0187055 0.0185143 0.0184243 0.0183605 0.0179771 0.0174662 0.0169877 0.0164799 0.0160004 0.0156258 0.0149307 0.0150983 0 0 0 0 0 0 0 0 0 0 0 0 0 0 0 0 0 0 0 0 0 0 0 0 0 0 0 0 0 0 0 0 0 0 0 0 0 0 0 0 0 0 0 0 0 0 0 0 0 0 0 0 0 0 0 0 0 0 0 0 0 0 0 0 0 0 0 0 0 0 0 0 0 8.67362e-19 
0.0219071 0.0218921 0.0218729 0.0218507 0.0218266 0.0218012 0.0217746 0.0217468 0.0217179 0.0216879 0.0216568 0.0216246 0.0215913 0.021557 0.0215217 0.0214855 0.0214483 0.0214103 0.0213715 0.021332 0.0212918 0.021251 0.0212097 0.0211679 0.0211258 0.0210834 0.0210407 0.020998 0.0209553 0.0209127 0.0208702 0.0208281 0.0207863 0.020745 0.0207043 0.0206643 0.020625 0.0205866 0.0205492 0.0205127 0.0204774 0.0204432 0.0204103 0.0203786 0.0203483 0.0203194 0.0202919 0.0202658 0.0202412 0.020218 0.0201963 0.0201761 0.0201573 0.0201399 0.0201239 0.0201092 0.0200958 0.0200837 0.0200727 0.0200628 0.020054 0.0200462 0.0200393 0.0200332 0.0200279 0.0200233 0.0200193 0.0200159 0.0200131 0.0200106 0.0200086 0.0200069 0.0200055 0.0200043 0.0200034 0.0200026 0.020002 0.0200015 0.0200012 0.0200009 0.0200006 0.0200005 0.0200003 0.0200002 0.0200002 0.0200001 0.0200001 0.0200001 0.02 0.02 0.02 0.02 0.02 0.02 0.02 0.02 0.02 0.02 0.02 0.02 0.02 0.02 0.02 0.02 0.02 0.02 0.02 0.02 0.02 0.02 0.02 0.02 0.02 0.02 0.02 0.02 0.02 0.02 0.02 0.02 0.02 0.02 0.02 0.02 0.02 0.02 0.02 0.02 0.02 0.02 0.02 0.02 0.02 0.02 0.02 0.02 0.02 0.02 0.02 0.02 0.02 0.02 0.02 0.02 0.02 0.02 0.02 0.02 0.02 0.02 0.02 0.02 0.02 0.02 0.02 0.02 0.02 0.02 0.02 0.02 0.02 0.02 0.02 0.02 0.02 0.02 0.02 0.02 0.02 0.02 0.02 0.02 0.02 0.02 0.02 0.02 0.02 0.02 0.02 0.02 0.02 0.02 0.02 0.02 0.02 0.02 0.02 0.02 0.02 0.02 0.02 0.02 0.02 0.02 0.02 0.02 0.02 0.02 0.02 0.02 0.02 0.02 0.02 0.02 0.02 0.0200001 0.0200001 0.0200001 0.0200001 0.0200001 0.0200001 0.0200001 0.0200001 0.0200001 0.0200001 0.0200001 0.0200001 0.0200002 0.0200002 0.0200002 0.0200002 0.0200002 0.0200003 0.0200003 0.0200003 0.0200003 0.0200004 0.0200004 0.0200005 0.0200005 0.0200006 0.0200006 0.0200007 0.0200007 0.0200008 0.0200009 0.0200009 0.020001 0.0200011 0.0200012 0.0200013 0.0200015 0.0200016 0.0200017 0.0200019 0.0200021 0.0200022 0.0200024 0.0200026 0.0200028 0.0200031 0.0200033 0.0200036 0.0200039 0.0200042 0.0200045 0.0200048 0.0200052 0.0200056 0.020006 0.0200064 0.0200069 0.0200074 0.0200079 0.0200085 0.0200091 0.0200097 0.0200103 0.020011 0.0200117 0.0200124 0.0200132 0.020014 0.0200149 0.0200157 0.0200167 0.0200176 0.0200186 0.0200197 0.0200207 0.0200219 0.020023 0.0200242 0.0200255 0.0200268 0.0200281 0.0200294 0.0200308 0.0200323 0.0200338 0.0200353 0.0200368 0.0200384 0.0200401 0.0200417 0.0200434 0.0200452 0.0200469 0.0200488 0.0200506 0.0200524 0.0200543 0.0200562 0.0200582 0.0200601 0.0200621 0.0200641 0.0200661 0.0200681 0.0200701 0.0200722 0.0200742 0.0200762 0.0200782 0.0200803 0.0200823 0.0200843 0.0200863 0.0200883 0.0200902 0.0200922 0.0200941 0.020096 0.0200979 0.0200997 0.0201015 0.0201033 0.020105 0.0201067 0.0201083 0.0201099 0.0201115 0.020113 0.0201144 0.0201158 0.0201171 0.0201184 0.0201196 0.0201207 0.0201218 0.0201229 0.0201238 0.0201247 0.0201255 0.0201263 0.020127 0.0201277 0.0201283 0.0201288 0.0201292 0.0201296 0.02013 0.0201303 0.0201305 0.0201307 0.0201308 0.0201309 0.020131 0.020131 0.0201309 0.0201309 0.0201308 0.0201307 0.0201305 0.0201303 0.0201301 0.0201299 0.0201297 0.0201295 0.0201293 0.0201291 0.0201288 0.0201286 0.0201284 0.0201283 0.0201281 0.020128 0.0201278 0.0201278 0.0201277 0.0201277 0.0201277 0.0201278 0.0201279 0.020128 0.0201282 0.0201285 0.0201287 0.0201291 0.0201295 0.0201299 0.0201304 0.020131 0.0201316 0.0201322 0.020133 0.0201337 0.0201346 0.0201354 0.0201364 0.0201374 0.0201384 0.0201395 0.0201406 0.0201418 0.0201431 0.0201444 0.0201457 0.0201471 0.0201485 0.02015 0.0201515 0.0201531 0.0201547 0.0201563 0.020158 0.0201597 0.0201615 0.0201633 0.0201651 0.020167 0.0201689 0.0201708 0.0201728 0.0201748 0.0201769 0.020179 0.0201811 0.0201833 0.0201855 0.0201878 0.0201901 0.0201924 0.0201949 0.0201973 0.0201999 0.0202025 0.0202052 0.0202079 0.0202108 0.0202137 0.0202168 0.02022 0.0202233 0.0202268 0.0202304 0.0202343 0.0202382 0.0202424 0.0202468 0.0202514 0.0202562 0.0202612 0.0202665 0.020272 0.0202778 0.0202838 0.0202901 0.0202966 0.0203034 0.0203105 0.0203177 0.0203253 0.0203331 0.0203412 0.0203495 0.020358 0.0203668 0.0203759 0.0203853 0.020395 0.020405 0.0204153 0.0204259 0.0204368 0.020448 0.0204594 0.0204711 0.020483 0.020495 0.0205071 0.0205192 0.0205313 0.0205433 0.020555 0.0205663 0.0205772 0.0205875 0.020597 0.0206056 0.0206132 0.0206196 0.0206247 0.0206282 0.0206301 0.0206301 0.0206283 0.0206245 0.0206185 0.0206104 0.0206001 0.0205877 0.0205732 0.0205566 0.0205381 0.0205179 0.020496 0.0204728 0.0204485 0.0204233 0.0203974 0.0203713 0.020345 0.020319 0.0202932 0.0202681 0.0202436 0.0202198 0.0201968 0.0201743 0.020152 0.0201296 0.0201064 0.0200813 0.0200532 0.0200201 0.0199801 0.0199303 0.0198672 0.0197867 0.0196842 0.0195556 0.0193973 0.0192037 0.0189763 0.0187453 0.0185548 0.0184181 0.0182499 0.0178976 0.0174306 0.0169425 0.0164415 0.0160028 0.015673 0.0149207 0.0150156 0.0138994 0 0 0 0 0 0 0 0 -0.0111569 -0.0188202 -0.0228608 0 0 0 0 0 0 0 0 0 0 0 0 0 0 0 0 0 0 0 0 0 0 0 0 0 0 0 0 0 0 0 0 0 0 0 0 0 0 0 0 0 0 0 0 0 0 0 0 0 0 0 0 0 0 0 0 0 0 0 0 0 -7.80626e-18 
0.0219071 0.0218907 0.0218716 0.0218499 0.0218263 0.0218011 0.0217746 0.0217468 0.0217179 0.0216879 0.0216567 0.0216245 0.0215912 0.0215568 0.0215215 0.0214852 0.0214481 0.0214101 0.0213712 0.0213317 0.0212915 0.0212507 0.0212093 0.0211676 0.0211254 0.021083 0.0210403 0.0209976 0.0209549 0.0209122 0.0208698 0.0208276 0.0207858 0.0207445 0.0207037 0.0206636 0.0206243 0.0205859 0.0205484 0.0205119 0.0204765 0.0204423 0.0204094 0.0203777 0.0203474 0.0203184 0.0202909 0.0202648 0.0202402 0.0202171 0.0201954 0.0201752 0.0201564 0.0201391 0.0201231 0.0201085 0.0200951 0.020083 0.0200721 0.0200623 0.0200535 0.0200458 0.0200389 0.0200329 0.0200276 0.0200231 0.0200191 0.0200158 0.0200129 0.0200105 0.0200085 0.0200068 0.0200054 0.0200043 0.0200033 0.0200026 0.020002 0.0200015 0.0200011 0.0200009 0.0200006 0.0200005 0.0200003 0.0200002 0.0200002 0.0200001 0.0200001 0.0200001 0.02 0.02 0.02 0.02 0.02 0.02 0.02 0.02 0.02 0.02 0.02 0.02 0.02 0.02 0.02 0.02 0.02 0.02 0.02 0.02 0.02 0.02 0.02 0.02 0.02 0.02 0.02 0.02 0.02 0.02 0.02 0.02 0.02 0.02 0.02 0.02 0.02 0.02 0.02 0.02 0.02 0.02 0.02 0.02 0.02 0.02 0.02 0.02 0.02 0.02 0.02 0.02 0.02 0.02 0.02 0.02 0.02 0.02 0.02 0.02 0.02 0.02 0.02 0.02 0.02 0.02 0.02 0.02 0.02 0.02 0.02 0.02 0.02 0.02 0.02 0.02 0.02 0.02 0.02 0.02 0.02 0.02 0.02 0.02 0.02 0.02 0.02 0.02 0.02 0.02 0.02 0.02 0.02 0.02 0.02 0.02 0.02 0.02 0.02 0.02 0.02 0.02 0.02 0.02 0.02 0.02 0.02 0.02 0.02 0.02 0.02 0.02 0.02 0.02 0.02 0.02 0.02 0.0200001 0.0200001 0.0200001 0.0200001 0.0200001 0.0200001 0.0200001 0.0200001 0.0200001 0.0200001 0.0200001 0.0200001 0.0200002 0.0200002 0.0200002 0.0200002 0.0200002 0.0200003 0.0200003 0.0200003 0.0200003 0.0200004 0.0200004 0.0200004 0.0200005 0.0200005 0.0200006 0.0200006 0.0200007 0.0200008 0.0200008 0.0200009 0.020001 0.0200011 0.0200012 0.0200013 0.0200014 0.0200016 0.0200017 0.0200018 0.020002 0.0200022 0.0200024 0.0200026 0.0200028 0.020003 0.0200032 0.0200035 0.0200038 0.0200041 0.0200044 0.0200047 0.0200051 0.0200055 0.0200059 0.0200063 0.0200068 0.0200073 0.0200078 0.0200083 0.0200089 0.0200095 0.0200101 0.0200108 0.0200115 0.0200122 0.020013 0.0200138 0.0200146 0.0200155 0.0200164 0.0200174 0.0200184 0.0200194 0.0200205 0.0200216 0.0200227 0.0200239 0.0200252 0.0200264 0.0200277 0.0200291 0.0200305 0.0200319 0.0200334 0.0200349 0.0200364 0.020038 0.0200396 0.0200413 0.020043 0.0200447 0.0200465 0.0200483 0.0200501 0.0200519 0.0200538 0.0200557 0.0200576 0.0200596 0.0200615 0.0200635 0.0200655 0.0200675 0.0200695 0.0200715 0.0200735 0.0200755 0.0200775 0.0200796 0.0200816 0.0200836 0.0200855 0.0200875 0.0200895 0.0200914 0.0200933 0.0200952 0.020097 0.0200988 0.0201006 0.0201024 0.0201041 0.0201058 0.0201074 0.020109 0.0201105 0.020112 0.0201134 0.0201147 0.020116 0.0201173 0.0201185 0.0201196 0.0201207 0.0201217 0.0201226 0.0201235 0.0201243 0.0201251 0.0201258 0.0201264 0.0201269 0.0201274 0.0201279 0.0201282 0.0201286 0.0201288 0.020129 0.0201292 0.0201293 0.0201293 0.0201293 0.0201293 0.0201292 0.0201291 0.020129 0.0201288 0.0201286 0.0201284 0.0201281 0.0201278 0.0201276 0.0201273 0.020127 0.0201267 0.0201264 0.0201261 0.0201259 0.0201256 0.0201254 0.0201252 0.020125 0.0201248 0.0201247 0.0201246 0.0201245 0.0201245 0.0201245 0.0201245 0.0201246 0.0201247 0.0201249 0.0201252 0.0201255 0.0201258 0.0201262 0.0201266 0.0201271 0.0201277 0.0201283 0.020129 0.0201297 0.0201305 0.0201313 0.0201322 0.0201331 0.0201341 0.0201352 0.0201363 0.0201374 0.0201386 0.0201399 0.0201412 0.0201425 0.0201439 0.0201454 0.0201468 0.0201484 0.02015 0.0201516 0.0201532 0.0201549 0.0201567 0.0201585 0.0201603 0.0201622 0.0201641 0.020166 0.020168 0.0201701 0.0201721 0.0201742 0.0201764 0.0201786 0.0201809 0.0201832 0.0201855 0.020188 0.0201904 0.020193 0.0201956 0.0201984 0.0202012 0.0202041 0.0202071 0.0202102 0.0202135 0.020217 0.0202205 0.0202243 0.0202282 0.0202323 0.0202366 0.020241 0.0202457 0.0202506 0.0202557 0.020261 0.0202666 0.0202724 0.0202784 0.0202847 0.0202912 0.020298 0.020305 0.0203123 0.0203199 0.0203276 0.0203356 0.0203439 0.0203523 0.020361 0.0203699 0.020379 0.0203884 0.020398 0.0204079 0.020418 0.0204284 0.0204391 0.0204499 0.020461 0.0204723 0.0204837 0.0204951 0.0205066 0.020518 0.0205292 0.0205402 0.0205509 0.020561 0.0205706 0.0205794 0.0205873 0.0205942 0.0205999 0.0206043 0.0206071 0.0206084 0.0206078 0.0206054 0.0206011 0.0205946 0.0205861 0.0205755 0.0205628 0.020548 0.0205312 0.0205126 0.0204923 0.0204705 0.0204474 0.0204231 0.0203981 0.0203725 0.0203466 0.0203206 0.0202948 0.0202693 0.0202444 0.0202202 0.0201967 0.0201738 0.0201514 0.0201293 0.0201069 0.0200836 0.0200584 0.02003 0.0199967 0.0199563 0.0199062 0.0198427 0.019762 0.0196596 0.0195323 0.0193789 0.0191992 0.0189943 0.0187827 0.0185884 0.0184046 0.0181704 0.0178247 0.0173831 0.0169018 0.0164291 0.0160431 0.0158003 0.0154953 0.014988 0.00947804 0 0 0 0 0 0 0 -0.0111286 -0.0143265 -0.0177354 -0.0219016 -0.0256212 -0.0298023 0 0 0 0 0 0 0 0 0 0 0 0 0 0 0 0 0 0 0 0 0 0 0 0 0 0 0 0 0 0 0 0 0 0 0 0 0 0 0 0 0 0 0 0 0 0 0 0 0 0 0 0 0 0 0 0 0 0 0 -6.07153e-18 