# vtk DataFile Version 2.0
iteration 1566
ASCII

DATASET STRUCTURED_POINTS
DIMENSIONS 621 64 1
ORIGIN 0 0 0
SPACING 0.00161031 0.00161031 0.00161031

POINT_DATA 39744
SCALARS P float 1
LOOKUP_TABLE default
0 0 0 0 0 0 0 0 0 0 0 0 0 0 0 0 0 0 0 0 0 0 0 0 0 0 0 0 0 0 0 0 0 0 0 0 0 0 0 0 0 0 0 0 0 0 0 0 0 0 0 0 0 0 0 0 0 0 0 0 0 0 0 0 0 0 0 0 0 0 0 0 0 0 0 0 0 0 0 0 0 0 0 0 0 0 0 0 0 0 0 0 0 0 0 0 0 0 0 0 0 0 0 0 0 0 0 0 0 0 0 0 0 0 0 0 0 0 0 0 0 0 0 0 0 0 0 0 0 0 0 0 0 0 0 0 0 0 0 0 0 0 0 0 0 0 0 0 0 0 0 0 0 0 0 0 0 0 0 0 0 0 0 0 0 0 0 0 0 0 0 0 0 0 0 0 0 0 0 0 0 0 0 0 0 0 0 0 0 0 0 0 0 0 0 0 0 0 0 0 0 0 0 0 0 0 0 0 0 0 0 0 0 0 0 0 0 0 0 0 0 0 0 0 0 0 0 0 0 0 0 0 0 0 0 0 0 0 0 0 0 0 0 0 0 0 0 0 0 0 0 0 0 0 0 0 0 0 0 0 0 0 0 0 0 0 0 0 0 0 0 0 0 0 0 0 0 0 0 0 0 0 0 0 0 0 0 0 0 0 0 0 0 0 0 0 0 0 0 0 0 0 0 0 0 0 0 0 0 0 0 0 0 0 0 0 0 0 0 0 0 0 0 0 0 0 0 0 0 0 0 0 0 0 0 0 0 0 0 0 0 0 0 0 0 0 0 0 0 0 0 0 0 0 0 0 0 0 0 0 0 0 0 0 0 0 0 0 0 0 0 0 0 0 0 0 0 0 0 0 0 0 0 0 0 0 0 0 0 0 0 0 0 0 0 0 0 0 0 0 0 0 0 0 0 0 0 0 0 0 0 0 0 0 0 0 0 0 0 0 0 0 0 0 0 0 0 0 0 0 0 0 0 0 0 0 0 0 0 0 0 0 0 0 0 0 0 0 0 0 0 0 0 0 0 0 0 0 0 0 0 0 0 0 0 0 0 0 0 0 0 0 0 0 0 0 0 0 0 0 0 0 0 0 0 0 0 0 0 0 0 0 0 0 0 0 0 0 0 0 0 0 0 0 0 0 0 0 0 0 0 0 0 0 0 0 0 0 0 0 0 0 0 0 0 0 0 0 0 0 0 0 0 0 0 0 0 0 0 0 0 0 0 0 0 0 0 0 0 0 0 0 0 0 0 0 0 0 0 0 0 0 0 0 0 0 0 0 0 0 0 0 0 0 0 0 0 0 0 0 0 0 0 0 0 0 0 0 0 0 0 0 0 0 0 0 0 0 0 0 0 0 0 0 0 0 0 0 0 0 0 0 0 0 0 0 0 0 0 0 0 
0.02 0.02 0.02 0.02 0.02 0.02 0.02 0.02 0.02 0.02 0.02 0.02 0.02 0.02 0.02 0.02 0.02 0.02 0.02 0.02 0.02 0.02 0.02 0.02 0.02 0.02 0.02 0.02 0.02 0.02 0.02 0.02 0.02 0.02 0.02 0.02 0.02 0.02 0.02 0.02 0.02 0.02 0.02 0.02 0.02 0.02 0.02 0.02 0.02 0.02 0.02 0.02 0.02 0.02 0.02 0.02 0.02 0.02 0.02 0.02 0.02 0.02 0.02 0.02 0.02 0.02 0.02 0.02 0.02 0.02 0.02 0.02 0.02 0.02 0.02 0.02 0.02 0.02 0.02 0.02 0.02 0.02 0.02 0.02 0.02 0.02 0.02 0.02 0.02 0.02 0.02 0.02 0.02 0.02 0.02 0.02 0.02 0.02 0.02 0.02 0.02 0.0199999 0.0199999 0.0199999 0.0199999 0.0199999 0.0199999 0.0199999 0.0199999 0.0199999 0.0199999 0.0199999 0.0199998 0.0199998 0.0199998 0.0199998 0.0199998 0.0199997 0.0199997 0.0199997 0.0199997 0.0199996 0.0199996 0.0199995 0.0199995 0.0199995 0.0199994 0.0199994 0.0199993 0.0199992 0.0199992 0.0199991 0.019999 0.0199989 0.0199988 0.0199987 0.0199986 0.0199985 0.0199984 0.0199982 0.0199981 0.0199979 0.0199977 0.0199976 0.0199974 0.0199972 0.0199969 0.0199967 0.0199964 0.0199962 0.0199959 0.0199956 0.0199953 0.0199949 0.0199946 0.0199942 0.0199938 0.0199934 0.0199929 0.0199925 0.019992 0.0199915 0.019991 0.0199905 0.01999 0.0199894 0.0199888 0.0199882 0.0199877 0.0199871 0.0199865 0.0199859 0.0199853 0.0199847 0.0199841 0.0199836 0.0199831 0.0199826 0.0199821 0.0199818 0.0199814 0.0199811 0.019981 0.0199808 0.0199808 0.0199809 0.0199812 0.0199815 0.019982 0.0199827 0.0199835 0.0199846 0.0199858 0.0199873 0.019989 0.0199909 0.0199931 0.0199956 0.0199984 0.0200015 0.0200049 0.0200087 0.0200128 0.0200172 0.0200221 0.0200273 0.0200329 0.020039 0.0200454 0.0200523 0.0200597 0.0200674 0.0200757 0.0200843 0.0200934 0.0201029 0.0201129 0.0201232 0.020134 0.0201452 0.0201568 0.0201688 0.0201812 0.0201939 0.020207 0.0202204 0.0202342 0.0202482 0.0202625 0.0202771 0.0202919 0.020307 0.0203222 0.0203376 0.0203531 0.0203687 0.0203844 0.0204001 0.0204159 0.0204316 0.0204473 0.020463 0.0204785 0.0204938 0.020509 0.020524 0.0205387 0.0205531 0.0205672 0.0205809 0.0205943 0.0206072 0.0206197 0.0206317 0.0206431 0.020654 0.0206643 0.020674 0.020683 0.0206914 0.0206991 0.0207061 0.0207123 0.0207178 0.0207226 0.0207266 0.0207298 0.0207322 0.0207338 0.0207347 0.0207348 0.0207341 0.0207327 0.0207305 0.0207277 0.0207241 0.0207199 0.020715 0.0207096 0.0207036 0.020697 0.02069 0.0206826 0.0206748 0.0206666 0.0206581 0.0206494 0.0206405 0.0206314 0.0206223 0.0206131 0.0206039 0.0205947 0.0205856 0.0205766 0.0205678 0.0205592 0.0205509 0.0205427 0.0205349 0.0205274 0.0205202 0.0205133 0.0205068 0.0205006 0.0204947 0.0204892 0.020484 0.0204791 0.0204745 0.0204702 0.0204661 0.0204622 0.0204584 0.0204548 0.0204512 0.0204476 0.020444 0.0204403 0.0204364 0.0204323 0.0204279 0.0204232 0.020418 0.0204123 0.020406 0.0203991 0.0203915 0.0203832 0.020374 0.0203638 0.0203527 0.0203405 0.020327 0.0203121 0.0202953 0.0202762 0.0202537 0.0202273 0.0201967 0.0201705 0.0201459 0.0201197 0.0200918 0.0200621 0.0200306 0.019997 0.0199612 0.0199229 0.0198819 0.0198377 0.0197901 0.0197384 0.0196822 0.0196209 0.0195537 0.01948 0.0193988 0.0193094 0.0192108 0.0191019 0.0189817 0.0188488 0.0187018 0.0185389 0.0183578 0.018156 0.01793 0.0176754 0.0173889 0.0170887 0.0167353 0.0164359 0.0163923 0.0191928 0 0 0 0 0 0 0 0 0 0 0 0 0 0 0 0 0 0 0 0 0 0 0 0 0 0 0 0 0 0 0 0 0 0 0 0 0 0 0 0 0 0 0 0 0 0 0 0 0 0 0 0 0 0 0 0 0 0 0 0 0 0 0 0 0 0 0 0 0 0 0 0 0 0 0 0 0 0 0 0 0 0 0 0 0 0 0 0 0 0 0 0 0 0 0 0 0 0 0 0 0 0 0 0 0 0 0 0 0 0 0 0 0 0 0 0 0 0 0 0 0 0 0 0 0 0 0 0 0 0 0 0 0 0 0 0 0 0 0 0 0 0 0 0 0 0 0 0 0 0 0 0 0 0 0 0 0 0 0 0 0 0 0 0 0 0 0 0 0 0 0 0 0 0 0 0 0 0 0 0 0 0 0 0 0 0 0 0 0 0 0 0 0 0 0 0 0 0 0 0 0 0 0 0 0 0 0 0 0 0 0 0 0 0 0 0 0 0 0 0 0 0 0 0 0 0 0 0 0 0 0 0 0 0 0 0 0 0 0 0 0 0 0 0 0 0 
0.02 0.02 0.02 0.02 0.02 0.02 0.02 0.02 0.02 0.02 0.02 0.02 0.02 0.02 0.02 0.02 0.02 0.02 0.02 0.02 0.02 0.02 0.02 0.02 0.02 0.02 0.02 0.02 0.02 0.02 0.02 0.02 0.02 0.02 0.02 0.02 0.02 0.02 0.02 0.02 0.02 0.02 0.02 0.02 0.02 0.02 0.02 0.02 0.02 0.02 0.02 0.02 0.02 0.02 0.02 0.02 0.02 0.02 0.02 0.02 0.02 0.02 0.02 0.02 0.02 0.02 0.02 0.02 0.02 0.02 0.02 0.02 0.02 0.02 0.02 0.02 0.02 0.02 0.02 0.02 0.02 0.02 0.02 0.02 0.02 0.02 0.02 0.02 0.02 0.02 0.02 0.02 0.02 0.02 0.02 0.02 0.02 0.02 0.02 0.02 0.02 0.02 0.0199999 0.0199999 0.0199999 0.0199999 0.0199999 0.0199999 0.0199999 0.0199999 0.0199999 0.0199999 0.0199998 0.0199998 0.0199998 0.0199998 0.0199998 0.0199997 0.0199997 0.0199997 0.0199997 0.0199996 0.0199996 0.0199996 0.0199995 0.0199995 0.0199994 0.0199994 0.0199993 0.0199992 0.0199992 0.0199991 0.019999 0.0199989 0.0199988 0.0199987 0.0199986 0.0199985 0.0199984 0.0199982 0.0199981 0.0199979 0.0199978 0.0199976 0.0199974 0.0199972 0.019997 0.0199967 0.0199965 0.0199962 0.0199959 0.0199956 0.0199953 0.019995 0.0199946 0.0199943 0.0199939 0.0199935 0.019993 0.0199926 0.0199921 0.0199916 0.0199911 0.0199906 0.0199901 0.0199895 0.019989 0.0199884 0.0199878 0.0199872 0.0199866 0.019986 0.0199854 0.0199848 0.0199843 0.0199837 0.0199832 0.0199827 0.0199823 0.0199819 0.0199816 0.0199813 0.0199811 0.019981 0.019981 0.0199811 0.0199813 0.0199816 0.0199821 0.0199828 0.0199836 0.0199846 0.0199858 0.0199873 0.019989 0.0199909 0.0199931 0.0199955 0.0199983 0.0200013 0.0200047 0.0200084 0.0200125 0.0200169 0.0200217 0.0200269 0.0200325 0.0200385 0.0200449 0.0200518 0.020059 0.0200668 0.0200749 0.0200835 0.0200925 0.020102 0.0201119 0.0201222 0.0201329 0.0201441 0.0201556 0.0201675 0.0201798 0.0201925 0.0202056 0.0202189 0.0202326 0.0202466 0.0202609 0.0202754 0.0202902 0.0203052 0.0203203 0.0203357 0.0203512 0.0203668 0.0203825 0.0203982 0.0204139 0.0204297 0.0204454 0.0204611 0.0204766 0.020492 0.0205072 0.0205222 0.020537 0.0205515 0.0205656 0.0205795 0.0205929 0.020606 0.0206185 0.0206306 0.0206422 0.0206533 0.0206637 0.0206736 0.0206828 0.0206914 0.0206993 0.0207064 0.0207129 0.0207186 0.0207236 0.0207278 0.0207312 0.0207339 0.0207358 0.0207369 0.0207372 0.0207368 0.0207356 0.0207337 0.0207311 0.0207278 0.0207238 0.0207192 0.020714 0.0207082 0.0207019 0.020695 0.0206878 0.0206801 0.0206721 0.0206637 0.0206551 0.0206463 0.0206373 0.0206282 0.020619 0.0206098 0.0206006 0.0205915 0.0205825 0.0205736 0.0205649 0.0205564 0.0205481 0.0205401 0.0205324 0.020525 0.0205179 0.0205112 0.0205047 0.0204986 0.0204929 0.0204874 0.0204822 0.0204774 0.0204727 0.0204683 0.0204641 0.0204601 0.0204562 0.0204523 0.0204484 0.0204445 0.0204405 0.0204364 0.020432 0.0204273 0.0204223 0.0204169 0.0204109 0.0204044 0.0203973 0.0203894 0.0203808 0.0203713 0.0203608 0.0203493 0.0203365 0.0203224 0.0203067 0.020289 0.020269 0.0202464 0.0202214 0.0201953 0.0201704 0.0201457 0.0201194 0.0200914 0.0200616 0.0200299 0.0199961 0.0199601 0.0199216 0.0198803 0.0198359 0.019788 0.0197361 0.0196797 0.0196181 0.0195507 0.0194768 0.0193956 0.0193062 0.0192075 0.0190987 0.0189785 0.0188458 0.018699 0.0185363 0.0183554 0.0181539 0.0179287 0.0176752 0.0173935 0.0171035 0.0168184 0.0165196 0.0164389 0.0167362 0.016435 0.0156495 0.0150724 0.0145171 0.0139581 0.0133106 0.0125105 0.011676 0.011251 0.0122651 0 0 0 0 0 0 0 0 0 0 0 0 0 0 0 0 0 0 0 0 0 0 0 0 0 0 0 0 0 0 0 0 0 0 0 0 0 0 0 0 0 0 0 0 0 0 0 0 0 0 0 0 0 0 0 0 0 0 0 0 0 0 0 0 0 0 0 0 0 0 0 0 0 0 0 0 0 0 0 0 0 0 0 0 0 0 0 0 0 0 0 0 0 0 0 0 0 0 0 0 0 0 0 0 0 0 0 0 0 0 0 0 0 0 0 0 0 0 0 0 0 0 0 0 0 0 0 0 0 0 0 0 0 0 0 0 0 0 0 0 0 0 0 0 0 0 0 0 0 0 0 0 0 0 0 0 0 0 0 0 0 0 0 0 0 0 0 0 0 0 0 0 0 0 0 0 0 0 0 0 0 0 0 0 0 0 0 0 0 0 0 0 0 0 0 0 0 0 0 0 0 0 0 0 0 0 0 0 0 0 0 0 0 0 0 0 0 0 0 0 0 0 0 0 0 0 0 0 0 0 0 0 0 0 0 0 
0.02 0.02 0.02 0.02 0.02 0.02 0.02 0.02 0.02 0.02 0.02 0.02 0.02 0.02 0.02 0.02 0.02 0.02 0.02 0.02 0.02 0.02 0.02 0.02 0.02 0.02 0.02 0.02 0.02 0.02 0.02 0.02 0.02 0.02 0.02 0.02 0.02 0.02 0.02 0.02 0.02 0.02 0.02 0.02 0.02 0.02 0.02 0.02 0.02 0.02 0.02 0.02 0.02 0.02 0.02 0.02 0.02 0.02 0.02 0.02 0.02 0.02 0.02 0.02 0.02 0.02 0.02 0.02 0.02 0.02 0.02 0.02 0.02 0.02 0.02 0.02 0.02 0.02 0.02 0.02 0.02 0.02 0.02 0.02 0.02 0.02 0.02 0.02 0.02 0.02 0.02 0.02 0.02 0.02 0.02 0.02 0.02 0.02 0.02 0.02 0.02 0.02 0.0199999 0.0199999 0.0199999 0.0199999 0.0199999 0.0199999 0.0199999 0.0199999 0.0199999 0.0199999 0.0199999 0.0199998 0.0199998 0.0199998 0.0199998 0.0199998 0.0199997 0.0199997 0.0199997 0.0199996 0.0199996 0.0199996 0.0199995 0.0199995 0.0199994 0.0199994 0.0199993 0.0199993 0.0199992 0.0199991 0.019999 0.019999 0.0199989 0.0199988 0.0199987 0.0199985 0.0199984 0.0199983 0.0199981 0.019998 0.0199978 0.0199976 0.0199975 0.0199973 0.019997 0.0199968 0.0199966 0.0199963 0.019996 0.0199957 0.0199954 0.0199951 0.0199947 0.0199944 0.019994 0.0199936 0.0199932 0.0199927 0.0199922 0.0199918 0.0199913 0.0199907 0.0199902 0.0199897 0.0199891 0.0199885 0.019988 0.0199874 0.0199868 0.0199862 0.0199856 0.019985 0.0199845 0.0199839 0.0199834 0.0199829 0.0199825 0.0199821 0.0199818 0.0199815 0.0199813 0.0199812 0.0199811 0.0199812 0.0199814 0.0199818 0.0199823 0.0199829 0.0199837 0.0199847 0.019986 0.0199874 0.019989 0.0199909 0.0199931 0.0199955 0.0199983 0.0200013 0.0200046 0.0200083 0.0200124 0.0200167 0.0200215 0.0200266 0.0200322 0.0200381 0.0200445 0.0200512 0.0200584 0.0200661 0.0200742 0.0200827 0.0200916 0.020101 0.0201108 0.020121 0.0201317 0.0201427 0.0201542 0.020166 0.0201782 0.0201908 0.0202038 0.020217 0.0202306 0.0202445 0.0202587 0.0202731 0.0202878 0.0203027 0.0203178 0.0203331 0.0203485 0.0203641 0.0203797 0.0203954 0.0204111 0.0204268 0.0204425 0.0204581 0.0204736 0.020489 0.0205043 0.0205193 0.0205341 0.0205486 0.0205629 0.0205768 0.0205903 0.0206035 0.0206162 0.0206284 0.0206401 0.0206513 0.020662 0.020672 0.0206814 0.0206902 0.0206983 0.0207058 0.0207125 0.0207185 0.0207238 0.0207283 0.020732 0.020735 0.0207372 0.0207387 0.0207394 0.0207393 0.0207385 0.0207369 0.0207347 0.0207317 0.0207281 0.0207238 0.0207189 0.0207135 0.0207075 0.020701 0.020694 0.0206866 0.0206788 0.0206707 0.0206623 0.0206537 0.0206449 0.0206359 0.0206269 0.0206178 0.0206086 0.0205995 0.0205905 0.0205816 0.0205729 0.0205643 0.020556 0.0205479 0.0205401 0.0205325 0.0205253 0.0205183 0.0205117 0.0205054 0.0204994 0.0204937 0.0204882 0.0204831 0.0204782 0.0204735 0.0204691 0.0204647 0.0204605 0.0204564 0.0204522 0.020448 0.0204438 0.0204393 0.0204347 0.0204298 0.0204245 0.0204187 0.0204125 0.0204057 0.0203983 0.0203901 0.0203811 0.0203712 0.0203603 0.0203482 0.0203348 0.02032 0.0203034 0.020285 0.0202647 0.0202426 0.0202192 0.0201955 0.0201716 0.0201467 0.0201202 0.0200919 0.0200619 0.0200299 0.0199959 0.0199595 0.0199207 0.019879 0.0198343 0.0197859 0.0197337 0.0196768 0.0196149 0.0195472 0.019473 0.0193916 0.019302 0.0192032 0.0190944 0.0189743 0.0188418 0.0186953 0.018533 0.0183525 0.0181519 0.017929 0.0176803 0.01741 0.0171452 0.0169064 0.01666 0.0165453 0.0164322 0.0161535 0.015578 0.0150237 0.0144668 0.0138678 0.013201 0.0124843 0.0116407 0.0110456 0.0108325 0.00993848 0.00882223 0.00766886 0.00727476 0.00546361 0 0 0 0 0 0 0 0 0 0 0 0 0 0 0 0 0 0 0 0 0 0 0 0 0 0 0 0 0 0 0 0 0 0 0 0 0 0 0 0 0 0 0 0 0 0 0 0 0 0 0 0 0 0 0 0 0 0 0 0 0 0 0 0 0 0 0 0 0 0 0 0 0 0 0 0 0 0 0 0 0 0 0 0 0 0 0 0 0 0 0 0 0 0 0 0 0 0 0 0 0 0 0 0 0 0 0 0 0 0 0 0 0 0 0 0 0 0 0 0 0 0 0 0 0 0 0 0 0 0 0 0 0 0 0 0 0 0 0 0 0 0 0 0 0 0 0 0 0 0 0 0 0 0 0 0 0 0 0 0 0 0 0 0 0 0 0 0 0 0 0 0 0 0 0 0 0 0 0 0 0 0 0 0 0 0 0 0 0 0 0 0 0 0 0 0 0 0 0 0 0 0 0 0 0 0 0 0 0 0 0 0 0 0 0 0 0 0 0 0 0 0 0 0 0 0 0 0 0 0 -6.50521e-19 
0.02 0.02 0.02 0.02 0.02 0.02 0.02 0.02 0.02 0.02 0.02 0.02 0.02 0.02 0.02 0.02 0.02 0.02 0.02 0.02 0.02 0.02 0.02 0.02 0.02 0.02 0.02 0.02 0.02 0.02 0.02 0.02 0.02 0.02 0.02 0.02 0.02 0.02 0.02 0.02 0.02 0.02 0.02 0.02 0.02 0.02 0.02 0.02 0.02 0.02 0.02 0.02 0.02 0.02 0.02 0.02 0.02 0.02 0.02 0.02 0.02 0.02 0.02 0.02 0.02 0.02 0.02 0.02 0.02 0.02 0.02 0.02 0.02 0.02 0.02 0.02 0.02 0.02 0.02 0.02 0.02 0.02 0.02 0.02 0.02 0.02 0.02 0.02 0.02 0.02 0.02 0.02 0.02 0.02 0.02 0.02 0.02 0.02 0.02 0.02 0.02 0.02 0.0199999 0.0199999 0.0199999 0.0199999 0.0199999 0.0199999 0.0199999 0.0199999 0.0199999 0.0199999 0.0199999 0.0199998 0.0199998 0.0199998 0.0199998 0.0199998 0.0199997 0.0199997 0.0199997 0.0199997 0.0199996 0.0199996 0.0199995 0.0199995 0.0199995 0.0199994 0.0199993 0.0199993 0.0199992 0.0199991 0.0199991 0.019999 0.0199989 0.0199988 0.0199987 0.0199986 0.0199985 0.0199983 0.0199982 0.019998 0.0199979 0.0199977 0.0199975 0.0199973 0.0199971 0.0199969 0.0199966 0.0199964 0.0199961 0.0199958 0.0199955 0.0199952 0.0199948 0.0199945 0.0199941 0.0199937 0.0199933 0.0199928 0.0199924 0.0199919 0.0199914 0.0199909 0.0199904 0.0199898 0.0199893 0.0199887 0.0199882 0.0199876 0.019987 0.0199864 0.0199858 0.0199853 0.0199847 0.0199842 0.0199837 0.0199832 0.0199828 0.0199824 0.019982 0.0199818 0.0199816 0.0199814 0.0199814 0.0199815 0.0199817 0.0199821 0.0199825 0.0199832 0.019984 0.019985 0.0199862 0.0199876 0.0199892 0.0199911 0.0199932 0.0199956 0.0199983 0.0200013 0.0200047 0.0200083 0.0200123 0.0200166 0.0200213 0.0200264 0.0200319 0.0200377 0.020044 0.0200507 0.0200578 0.0200654 0.0200734 0.0200818 0.0200906 0.0200999 0.0201096 0.0201197 0.0201302 0.0201412 0.0201525 0.0201642 0.0201763 0.0201887 0.0202016 0.0202147 0.0202282 0.0202419 0.020256 0.0202703 0.0202849 0.0202997 0.0203147 0.0203298 0.0203451 0.0203606 0.0203761 0.0203917 0.0204074 0.020423 0.0204387 0.0204543 0.0204698 0.0204851 0.0205004 0.0205154 0.0205303 0.0205448 0.0205591 0.0205731 0.0205868 0.0206 0.0206129 0.0206252 0.0206371 0.0206485 0.0206594 0.0206697 0.0206793 0.0206884 0.0206968 0.0207046 0.0207116 0.020718 0.0207236 0.0207285 0.0207326 0.020736 0.0207387 0.0207406 0.0207417 0.0207421 0.0207417 0.0207406 0.0207388 0.0207364 0.0207332 0.0207294 0.020725 0.0207199 0.0207144 0.0207083 0.0207017 0.0206947 0.0206872 0.0206795 0.0206714 0.020663 0.0206544 0.0206457 0.0206368 0.0206278 0.0206188 0.0206098 0.0206008 0.0205919 0.0205832 0.0205746 0.0205662 0.020558 0.02055 0.0205423 0.0205349 0.0205277 0.0205209 0.0205143 0.0205081 0.0205021 0.0204965 0.020491 0.0204859 0.0204809 0.0204761 0.0204715 0.0204669 0.0204625 0.020458 0.0204535 0.0204489 0.0204442 0.0204392 0.0204339 0.0204283 0.0204223 0.0204157 0.0204086 0.0204008 0.0203922 0.0203828 0.0203724 0.0203609 0.0203483 0.0203343 0.0203188 0.0203019 0.0202833 0.0202634 0.0202422 0.0202202 0.0201975 0.0201738 0.0201487 0.0201219 0.0200933 0.0200629 0.0200306 0.0199961 0.0199593 0.01992 0.0198779 0.0198326 0.0197838 0.019731 0.0196737 0.0196113 0.0195431 0.0194686 0.0193868 0.019297 0.0191982 0.0190894 0.0189694 0.0188372 0.0186912 0.0185296 0.0183502 0.0181514 0.0179329 0.0176944 0.0174412 0.0172028 0.0169997 0.0168037 0.0165408 0.0163645 0.0159946 0.0155207 0.0149948 0.0144468 0.013832 0.0131745 0.0125087 0.0118247 0.0110547 0.0105514 0.00967917 0.00864074 0.00750027 0.00652582 0.00520127 0.00354682 0.00154176 -7.82497e-07 0 0 0 0 0 0 0 0 0 0 0 0 0 0 0 0 0 0 0 0 0 0 0 0 0 0 0 0 0 0 0 0 0 0 0 0 0 0 0 0 0 0 0 0 0 0 0 0 0 0 0 0 0 0 0 0 0 0 0 0 0 0 0 0 0 0 0 0 0 0 0 0 0 0 0 0 0 0 0 0 0 0 0 0 0 0 0 0 0 0 0 0 0 0 0 0 0 0 0 0 0 0 0 0 0 0 0 0 0 0 0 0 0 0 0 0 0 0 0 0 0 0 0 0 0 0 0 0 0 0 0 0 0 0 0 0 0 0 0 0 0 0 0 0 0 0 0 0 0 0 0 0 0 0 0 0 0 0 0 0 0 0 0 0 0 0 0 0 0 0 0 0 0 0 0 0 0 0 0 0 0 0 0 0 0 0 0 0 0 0 0 0 0 0 0 0 0 0 0 0 0 0 0 0 0 0 0 0 0 0 0 0 0 0 0 0 0 0 0 0 0 0 0 0 0 0 0 1.0842e-19 
0.02 0.02 0.02 0.02 0.02 0.02 0.02 0.02 0.02 0.02 0.02 0.02 0.02 0.02 0.02 0.02 0.02 0.02 0.02 0.02 0.02 0.02 0.02 0.02 0.02 0.02 0.02 0.02 0.02 0.02 0.02 0.02 0.02 0.02 0.02 0.02 0.02 0.02 0.02 0.02 0.02 0.02 0.02 0.02 0.02 0.02 0.02 0.02 0.02 0.02 0.02 0.02 0.02 0.02 0.02 0.02 0.02 0.02 0.02 0.02 0.02 0.02 0.02 0.02 0.02 0.02 0.02 0.02 0.02 0.02 0.02 0.02 0.02 0.02 0.02 0.02 0.02 0.02 0.02 0.02 0.02 0.02 0.02 0.02 0.02 0.02 0.02 0.02 0.02 0.02 0.02 0.02 0.02 0.02 0.02 0.02 0.02 0.02 0.02 0.02 0.02 0.02 0.02 0.0199999 0.0199999 0.0199999 0.0199999 0.0199999 0.0199999 0.0199999 0.0199999 0.0199999 0.0199999 0.0199998 0.0199998 0.0199998 0.0199998 0.0199998 0.0199997 0.0199997 0.0199997 0.0199997 0.0199996 0.0199996 0.0199996 0.0199995 0.0199995 0.0199994 0.0199994 0.0199993 0.0199992 0.0199992 0.0199991 0.019999 0.0199989 0.0199988 0.0199987 0.0199986 0.0199985 0.0199984 0.0199982 0.0199981 0.0199979 0.0199978 0.0199976 0.0199974 0.0199972 0.019997 0.0199967 0.0199965 0.0199962 0.0199959 0.0199956 0.0199953 0.019995 0.0199946 0.0199942 0.0199939 0.0199934 0.019993 0.0199926 0.0199921 0.0199916 0.0199911 0.0199906 0.0199901 0.0199895 0.019989 0.0199884 0.0199878 0.0199873 0.0199867 0.0199861 0.0199856 0.019985 0.0199845 0.019984 0.0199835 0.0199831 0.0199827 0.0199824 0.0199821 0.0199819 0.0199818 0.0199818 0.0199819 0.0199821 0.0199824 0.0199829 0.0199835 0.0199843 0.0199853 0.0199865 0.0199879 0.0199895 0.0199913 0.0199935 0.0199958 0.0199985 0.0200015 0.0200048 0.0200083 0.0200123 0.0200166 0.0200212 0.0200262 0.0200316 0.0200374 0.0200436 0.0200501 0.0200572 0.0200646 0.0200725 0.0200808 0.0200895 0.0200986 0.0201082 0.0201181 0.0201285 0.0201393 0.0201505 0.0201621 0.020174 0.0201863 0.020199 0.0202119 0.0202253 0.0202389 0.0202528 0.0202669 0.0202814 0.020296 0.0203108 0.0203259 0.0203411 0.0203564 0.0203718 0.0203873 0.0204029 0.0204184 0.020434 0.0204495 0.020465 0.0204803 0.0204956 0.0205106 0.0205255 0.0205401 0.0205545 0.0205686 0.0205823 0.0205957 0.0206087 0.0206213 0.0206334 0.020645 0.0206561 0.0206667 0.0206767 0.020686 0.0206948 0.0207029 0.0207104 0.0207172 0.0207232 0.0207286 0.0207332 0.0207371 0.0207403 0.0207427 0.0207443 0.0207453 0.0207455 0.0207449 0.0207437 0.0207418 0.0207392 0.0207359 0.020732 0.0207275 0.0207225 0.0207168 0.0207107 0.0207042 0.0206972 0.0206898 0.020682 0.020674 0.0206657 0.0206572 0.0206486 0.0206398 0.0206309 0.020622 0.0206131 0.0206042 0.0205955 0.0205868 0.0205784 0.0205701 0.020562 0.0205541 0.0205465 0.0205391 0.0205321 0.0205253 0.0205187 0.0205125 0.0205065 0.0205008 0.0204953 0.02049 0.0204849 0.0204799 0.020475 0.0204702 0.0204654 0.0204606 0.0204556 0.0204505 0.0204452 0.0204395 0.0204336 0.0204271 0.0204202 0.0204126 0.0204044 0.0203954 0.0203855 0.0203746 0.0203627 0.0203496 0.0203352 0.0203196 0.0203026 0.0202845 0.0202651 0.0202448 0.0202234 0.0202009 0.020177 0.0201516 0.0201244 0.0200955 0.0200646 0.0200318 0.0199968 0.0199595 0.0199196 0.0198769 0.019831 0.0197815 0.0197281 0.0196701 0.0196071 0.0195385 0.0194635 0.0193814 0.0192913 0.0191924 0.0190837 0.018964 0.0188322 0.018687 0.0185266 0.018349 0.0181534 0.0179415 0.0177172 0.0174857 0.0172642 0.0170717 0.0168953 0.0166749 0.016352 0.0159458 0.0154929 0.0149888 0.0144399 0.0138276 0.0131857 0.0125394 0.0119119 0.0112465 0.0104572 0.0095512 0.00854594 0.00746694 0.00630562 0.00492208 0.00328309 0.00144705 -0.000665085 -0.00348819 -0.00639847 -0.00993479 0 0 0 0 0 0 0 0 0 0 0 0 0 0 0 0 0 0 0 0 0 0 0 0 0 0 0 0 0 0 0 0 0 0 0 0 0 0 0 0 0 0 0 0 0 0 0 0 0 0 0 0 0 0 0 0 0 0 0 0 0 0 0 0 0 0 0 0 0 0 0 0 0 0 0 0 0 0 0 0 0 0 0 0 0 0 0 0 0 0 0 0 0 0 0 0 0 0 0 0 0 0 0 0 0 0 0 0 0 0 0 0 0 0 0 0 0 0 0 0 0 0 0 0 0 0 0 0 0 0 0 0 0 0 0 0 0 0 0 0 0 0 0 0 0 0 0 0 0 0 0 0 0 0 0 0 0 0 0 0 0 0 0 0 0 0 0 0 0 0 0 0 0 0 0 0 0 0 0 0 0 0 0 0 0 0 0 0 0 0 0 0 0 0 0 0 0 0 0 0 0 0 0 0 0 0 0 0 0 0 0 0 0 0 0 0 0 0 0 0 0 0 0 -0.00546566 -6.50521e-19 
0.02 0.02 0.02 0.02 0.02 0.02 0.02 0.02 0.02 0.02 0.02 0.02 0.02 0.02 0.02 0.02 0.02 0.02 0.02 0.02 0.02 0.02 0.02 0.02 0.02 0.02 0.02 0.02 0.02 0.02 0.02 0.02 0.02 0.02 0.02 0.02 0.02 0.02 0.02 0.02 0.02 0.02 0.02 0.02 0.02 0.02 0.02 0.02 0.02 0.02 0.02 0.02 0.02 0.02 0.02 0.02 0.02 0.02 0.02 0.02 0.02 0.02 0.02 0.02 0.02 0.02 0.02 0.02 0.02 0.02 0.02 0.02 0.02 0.02 0.02 0.02 0.02 0.02 0.02 0.02 0.02 0.02 0.02 0.02 0.02 0.02 0.02 0.02 0.02 0.02 0.02 0.02 0.02 0.02 0.02 0.02 0.02 0.02 0.02 0.02 0.02 0.02 0.02 0.0199999 0.0199999 0.0199999 0.0199999 0.0199999 0.0199999 0.0199999 0.0199999 0.0199999 0.0199999 0.0199999 0.0199998 0.0199998 0.0199998 0.0199998 0.0199998 0.0199997 0.0199997 0.0199997 0.0199996 0.0199996 0.0199996 0.0199995 0.0199995 0.0199994 0.0199994 0.0199993 0.0199993 0.0199992 0.0199991 0.0199991 0.019999 0.0199989 0.0199988 0.0199987 0.0199986 0.0199984 0.0199983 0.0199982 0.019998 0.0199978 0.0199977 0.0199975 0.0199973 0.0199971 0.0199968 0.0199966 0.0199963 0.0199961 0.0199958 0.0199955 0.0199951 0.0199948 0.0199944 0.019994 0.0199936 0.0199932 0.0199928 0.0199923 0.0199918 0.0199914 0.0199909 0.0199903 0.0199898 0.0199893 0.0199887 0.0199882 0.0199876 0.019987 0.0199865 0.0199859 0.0199854 0.0199849 0.0199844 0.0199839 0.0199835 0.0199831 0.0199828 0.0199825 0.0199824 0.0199822 0.0199822 0.0199823 0.0199825 0.0199829 0.0199833 0.0199839 0.0199847 0.0199857 0.0199869 0.0199882 0.0199898 0.0199917 0.0199938 0.0199961 0.0199988 0.0200017 0.0200049 0.0200085 0.0200123 0.0200166 0.0200211 0.020026 0.0200313 0.020037 0.0200431 0.0200496 0.0200565 0.0200638 0.0200715 0.0200797 0.0200882 0.0200972 0.0201066 0.0201164 0.0201266 0.0201372 0.0201482 0.0201596 0.0201714 0.0201835 0.020196 0.0202088 0.0202219 0.0202353 0.020249 0.020263 0.0202772 0.0202917 0.0203064 0.0203212 0.0203363 0.0203514 0.0203667 0.0203821 0.0203975 0.020413 0.0204285 0.0204439 0.0204594 0.0204747 0.0204899 0.020505 0.0205199 0.0205345 0.020549 0.0205632 0.020577 0.0205906 0.0206038 0.0206165 0.0206289 0.0206408 0.0206522 0.020663 0.0206734 0.0206831 0.0206923 0.0207009 0.0207088 0.020716 0.0207226 0.0207285 0.0207337 0.0207381 0.0207419 0.0207449 0.0207472 0.0207487 0.0207496 0.0207497 0.0207491 0.0207478 0.0207458 0.0207432 0.0207399 0.020736 0.0207316 0.0207265 0.020721 0.0207149 0.0207084 0.0207014 0.0206941 0.0206865 0.0206785 0.0206703 0.0206619 0.0206533 0.0206446 0.0206358 0.020627 0.0206182 0.0206095 0.0206008 0.0205922 0.0205838 0.0205756 0.0205676 0.0205598 0.0205522 0.0205449 0.0205378 0.020531 0.0205245 0.0205182 0.0205121 0.0205063 0.0205007 0.0204952 0.0204899 0.0204846 0.0204794 0.0204742 0.020469 0.0204637 0.0204582 0.0204525 0.0204464 0.02044 0.0204332 0.0204258 0.0204179 0.0204092 0.0203998 0.0203895 0.0203783 0.0203661 0.0203528 0.0203383 0.0203228 0.0203061 0.0202883 0.0202694 0.0202494 0.0202281 0.0202054 0.0201811 0.0201553 0.0201276 0.0200982 0.0200669 0.0200335 0.0199979 0.0199599 0.0199193 0.0198759 0.0198293 0.0197791 0.0197249 0.0196663 0.0196026 0.0195334 0.0194579 0.0193754 0.019285 0.019186 0.0190774 0.018958 0.0188268 0.0186826 0.0185239 0.0183493 0.0181585 0.0179549 0.0177451 0.0175344 0.0173265 0.0171252 0.0169101 0.0166595 0.0163347 0.0159426 0.0154957 0.0149955 0.0144466 0.0138464 0.013217 0.0125707 0.0119132 0.0112009 0.0103934 0.00948633 0.00847677 0.00734263 0.00612544 0.00467462 0.00301412 0.0011506 -0.000916792 -0.0035774 -0.00663537 -0.0107594 -0.0152445 -0.020037 0 0 0 0 0 0 0 0 0 0 0 0 0 0 0 0 0 0 0 0 0 0 0 0 0 0 0 0 0 0 0 0 0 0 0 0 0 0 0 0 0 0 0 0 0 0 0 0 0 0 0 0 0 0 0 0 0 0 0 0 0 0 0 0 0 0 0 0 0 0 0 0 0 0 0 0 0 0 0 0 0 0 0 0 0 0 0 0 0 0 0 0 0 0 0 0 0 0 0 0 0 0 0 0 0 0 0 0 0 0 0 0 0 0 0 0 0 0 0 0 0 0 0 0 0 0 0 0 0 0 0 0 0 0 0 0 0 0 0 0 0 0 0 0 0 0 0 0 0 0 0 0 0 0 0 0 0 0 0 0 0 0 0 0 0 0 0 0 0 0 0 0 0 0 0 0 0 0 0 0 0 0 0 0 0 0 0 0 0 0 0 0 0 0 0 0 0 0 0 0 0 0 0 0 0 0 0 0 0 0 0 0 0 0 0 0 0 0 0 0 -0.0183769 -0.00954126 0 
0.02 0.02 0.02 0.02 0.02 0.02 0.02 0.02 0.02 0.02 0.02 0.02 0.02 0.02 0.02 0.02 0.02 0.02 0.02 0.02 0.02 0.02 0.02 0.02 0.02 0.02 0.02 0.02 0.02 0.02 0.02 0.02 0.02 0.02 0.02 0.02 0.02 0.02 0.02 0.02 0.02 0.02 0.02 0.02 0.02 0.02 0.02 0.02 0.02 0.02 0.02 0.02 0.02 0.02 0.02 0.02 0.02 0.02 0.02 0.02 0.02 0.02 0.02 0.02 0.02 0.02 0.02 0.02 0.02 0.02 0.02 0.02 0.02 0.02 0.02 0.02 0.02 0.02 0.02 0.02 0.02 0.02 0.02 0.02 0.02 0.02 0.02 0.02 0.02 0.02 0.02 0.02 0.02 0.02 0.02 0.02 0.02 0.02 0.02 0.02 0.02 0.02 0.02 0.02 0.0199999 0.0199999 0.0199999 0.0199999 0.0199999 0.0199999 0.0199999 0.0199999 0.0199999 0.0199999 0.0199998 0.0199998 0.0199998 0.0199998 0.0199998 0.0199997 0.0199997 0.0199997 0.0199997 0.0199996 0.0199996 0.0199996 0.0199995 0.0199995 0.0199994 0.0199994 0.0199993 0.0199992 0.0199992 0.0199991 0.019999 0.0199989 0.0199988 0.0199987 0.0199986 0.0199985 0.0199984 0.0199982 0.0199981 0.0199979 0.0199978 0.0199976 0.0199974 0.0199972 0.019997 0.0199967 0.0199965 0.0199962 0.0199959 0.0199956 0.0199953 0.019995 0.0199946 0.0199942 0.0199938 0.0199934 0.019993 0.0199926 0.0199921 0.0199916 0.0199912 0.0199906 0.0199901 0.0199896 0.0199891 0.0199885 0.019988 0.0199874 0.0199869 0.0199864 0.0199858 0.0199853 0.0199849 0.0199844 0.019984 0.0199836 0.0199833 0.0199831 0.0199829 0.0199828 0.0199828 0.0199829 0.0199831 0.0199834 0.0199839 0.0199845 0.0199853 0.0199862 0.0199874 0.0199887 0.0199903 0.0199921 0.0199942 0.0199965 0.0199991 0.0200019 0.0200051 0.0200086 0.0200124 0.0200166 0.0200211 0.0200259 0.0200311 0.0200367 0.0200427 0.020049 0.0200558 0.0200629 0.0200705 0.0200785 0.0200869 0.0200957 0.0201049 0.0201145 0.0201245 0.0201349 0.0201457 0.0201569 0.0201684 0.0201803 0.0201926 0.0202052 0.0202181 0.0202313 0.0202448 0.0202585 0.0202726 0.0202868 0.0203013 0.020316 0.0203308 0.0203458 0.0203609 0.0203761 0.0203914 0.0204068 0.0204222 0.0204375 0.0204529 0.0204682 0.0204833 0.0204984 0.0205133 0.0205281 0.0205426 0.0205569 0.0205709 0.0205846 0.020598 0.020611 0.0206236 0.0206358 0.0206475 0.0206587 0.0206694 0.0206796 0.0206893 0.0206983 0.0207067 0.0207145 0.0207216 0.0207281 0.0207339 0.020739 0.0207434 0.0207471 0.0207501 0.0207524 0.0207539 0.0207547 0.0207548 0.0207543 0.020753 0.0207511 0.0207485 0.0207453 0.0207414 0.020737 0.020732 0.0207265 0.0207205 0.0207141 0.0207072 0.0207 0.0206924 0.0206845 0.0206764 0.020668 0.0206595 0.0206509 0.0206422 0.0206335 0.0206247 0.020616 0.0206074 0.0205989 0.0205906 0.0205824 0.0205744 0.0205666 0.020559 0.0205517 0.0205446 0.0205378 0.0205312 0.0205248 0.0205187 0.0205127 0.0205069 0.0205012 0.0204956 0.02049 0.0204844 0.0204788 0.0204731 0.0204672 0.0204611 0.0204547 0.0204479 0.0204407 0.020433 0.0204246 0.0204156 0.0204059 0.0203954 0.0203839 0.0203716 0.0203582 0.0203438 0.0203284 0.0203119 0.0202942 0.0202754 0.0202552 0.0202337 0.0202106 0.0201859 0.0201596 0.0201315 0.0201015 0.0200695 0.0200355 0.0199992 0.0199605 0.0199192 0.0198749 0.0198275 0.0197765 0.0197215 0.0196621 0.0195977 0.0195278 0.0194517 0.0193688 0.0192782 0.0191791 0.0190705 0.0189515 0.018821 0.018678 0.0185215 0.0183508 0.0181665 0.0179723 0.0177747 0.0175791 0.0173822 0.0171749 0.0169468 0.0166712 0.0163394 0.0159501 0.0155062 0.0150099 0.0144663 0.0138781 0.0132542 0.0126008 0.0119097 0.0111617 0.0103275 0.00940256 0.00838085 0.00722874 0.00591306 0.00441385 0.00270907 0.0007729 -0.00141684 -0.00389548 -0.00671137 -0.0103861 -0.0148683 -0.020557 -0.0269638 -0.0327506 0 0 0 0 0 0 0 0 0 0 0 0 0 0 0 0 0 0 0 0 0 0 0 0 0 0 0 0 0 0 0 0 0 0 0 0 0 0 0 0 0 0 0 0 0 0 0 0 0 0 0 0 0 0 0 0 0 0 0 0 0 0 0 0 0 0 0 0 0 0 0 0 0 0 0 0 0 0 0 0 0 0 0 0 0 0 0 0 0 0 0 0 0 0 0 0 0 0 0 0 0 0 0 0 0 0 0 0 0 0 0 0 0 0 0 0 0 0 0 0 0 0 0 0 0 0 0 0 0 0 0 0 0 0 0 0 0 0 0 0 0 0 0 0 0 0 0 0 0 0 0 0 0 0 0 0 0 0 0 0 0 0 0 0 0 0 0 0 0 0 0 0 0 0 0 0 0 0 0 0 0 0 0 0 0 0 0 0 0 0 0 0 0 0 0 0 0 0 0 0 0 0 0 0 0 0 0 0 0 0 0 0 0 0 0 -0.0409219 -0.0385155 -0.031541 -0.0225257 -0.0123546 -2.81893e-18 