# vtk DataFile Version 2.0
iteration 2727
ASCII

DATASET STRUCTURED_POINTS
DIMENSIONS 621 64 1
ORIGIN 0 0 0
SPACING 0.00161031 0.00161031 0.00161031

POINT_DATA 39744
SCALARS P float 1
LOOKUP_TABLE default
0 0 0 0 0 0 0 0 0 0 0 0 0 0 0 0 0 0 0 0 0 0 0 0 0 0 0 0 0 0 0 0 0 0 0 0 0 0 0 0 0 0 0 0 0 0 0 0 0 0 0 0 0 0 0 0 0 0 0 0 0 0 0 0 0 0 0 0 0 0 0 0 0 0 0 0 0 0 0 0 0 0 0 0 0 0 0 0 0 0 0 0 0 0 0 0 0 0 0 0 0 0 0 0 0 0 0 0 0 0 0 0 0 0 0 0 0 0 0 0 0 0 0 0 0 0 0 0 0 0 0 0 0 0 0 0 0 0 0 0 0 0 0 0 0 0 0 0 0 0 0 0 0 0 0 0 0 0 0 0 0 0 0 0 0 0 0 0 0 0 0 0 0 0 0 0 0 0 0 0 0 0 0 0 0 0 0 0 0 0 0 0 0 0 0 0 0 0 0 0 0 0 0 0 0 0 0 0 0 0 0 0 0 0 0 0 0 0 0 0 0 0 0 0 0 0 0 0 0 0 0 0 0 0 0 0 0 0 0 0 0 0 0 0 0 0 0 0 0 0 0 0 0 0 0 0 0 0 0 0 0 0 0 0 0 0 0 0 0 0 0 0 0 0 0 0 0 0 0 0 0 0 0 0 0 0 0 0 0 0 0 0 0 0 0 0 0 0 0 0 0 0 0 0 0 0 0 0 0 0 0 0 0 0 0 0 0 0 0 0 0 0 0 0 0 0 0 0 0 0 0 0 0 0 0 0 0 0 0 0 0 0 0 0 0 0 0 0 0 0 0 0 0 0 0 0 0 0 0 0 0 0 0 0 0 0 0 0 0 0 0 0 0 0 0 0 0 0 0 0 0 0 0 0 0 0 0 0 0 0 0 0 0 0 0 0 0 0 0 0 0 0 0 0 0 0 0 0 0 0 0 0 0 0 0 0 0 0 0 0 0 0 0 0 0 0 0 0 0 0 0 0 0 0 0 0 0 0 0 0 0 0 0 0 0 0 0 0 0 0 0 0 0 0 0 0 0 0 0 0 0 0 0 0 0 0 0 0 0 0 0 0 0 0 0 0 0 0 0 0 0 0 0 0 0 0 0 0 0 0 0 0 0 0 0 0 0 0 0 0 0 0 0 0 0 0 0 0 0 0 0 0 0 0 0 0 0 0 0 0 0 0 0 0 0 0 0 0 0 0 0 0 0 0 0 0 0 0 0 0 0 0 0 0 0 0 0 0 0 0 0 0 0 0 0 0 0 0 0 0 0 0 0 0 0 0 0 0 0 0 0 0 0 0 0 0 0 0 0 0 0 0 0 0 0 0 0 0 0 0 0 0 0 0 0 0 0 0 0 0 0 0 0 0 0 0 0 0 0 0 0 0 0 0 0 0 0 0 0 0 0 
0.0192686 0.0192647 0.0191684 0.0191182 0.0190694 0.0190218 0.0189753 0.0189297 0.0188851 0.0188416 0.0187991 0.0187576 0.0187174 0.0186783 0.0186405 0.0186039 0.0185686 0.0185346 0.0185019 0.0184706 0.0184407 0.0184121 0.018385 0.0183594 0.0183351 0.0183124 0.0182911 0.0182714 0.0182532 0.0182365 0.0182213 0.0182077 0.0181956 0.0181851 0.0181761 0.0181687 0.0181629 0.0181586 0.0181559 0.0181548 0.0181552 0.0181572 0.0181607 0.0181658 0.0181723 0.0181804 0.01819 0.018201 0.0182135 0.0182275 0.0182429 0.0182597 0.0182779 0.0182974 0.0183183 0.0183405 0.0183639 0.0183887 0.0184146 0.0184417 0.01847 0.0184993 0.0185298 0.0185612 0.0185936 0.018627 0.0186612 0.0186963 0.0187322 0.0187689 0.0188063 0.0188443 0.018883 0.0189223 0.0189622 0.0190026 0.0190435 0.0190849 0.0191268 0.0191691 0.0192118 0.0192549 0.0192983 0.0193422 0.0193863 0.0194307 0.0194754 0.0195204 0.0195656 0.019611 0.0196565 0.0197022 0.019748 0.0197938 0.0198393 0.0198841 0.019927 0.0199649 0.0199948 0.0200235 0.0200586 0.0200962 0.0201352 0.0201748 0.0202149 0.0202553 0.0202959 0.0203365 0.0203771 0.0204177 0.0204581 0.0204983 0.0205383 0.020578 0.0206174 0.0206563 0.0206949 0.020733 0.0207706 0.0208076 0.0208441 0.02088 0.0209152 0.0209497 0.0209835 0.0210166 0.0210489 0.0210804 0.021111 0.0211408 0.0211697 0.0211977 0.0212248 0.0212509 0.0212761 0.0213003 0.0213235 0.0213456 0.0213668 0.0213869 0.0214059 0.0214239 0.0214408 0.0214566 0.0214714 0.021485 0.0214976 0.021509 0.0215194 0.0215286 0.0215368 0.0215438 0.0215498 0.0215546 0.0215584 0.0215611 0.0215628 0.0215633 0.0215628 0.0215613 0.0215588 0.0215552 0.0215506 0.021545 0.0215385 0.021531 0.0215226 0.0215133 0.021503 0.0214919 0.02148 0.0214672 0.0214536 0.0214393 0.0214241 0.0214083 0.0213917 0.0213745 0.0213566 0.0213382 0.0213191 0.0212995 0.0212793 0.0212587 0.0212376 0.021216 0.0211941 0.0211717 0.0211491 0.0211261 0.0211029 0.0210794 0.0210558 0.0210319 0.0210079 0.0209838 0.0209596 0.0209354 0.0209111 0.0208869 0.0208626 0.0208385 0.0208144 0.0207905 0.0207667 0.0207431 0.0207197 0.0206965 0.0206736 0.0206509 0.0206285 0.0206064 0.0205847 0.0205633 0.0205422 0.0205216 0.0205013 0.0204814 0.020462 0.0204429 0.0204243 0.0204062 0.0203885 0.0203713 0.0203546 0.0203383 0.0203225 0.0203071 0.0202923 0.0202779 0.020264 0.0202506 0.0202376 0.0202251 0.0202131 0.0202015 0.0201904 0.0201798 0.0201695 0.0201597 0.0201504 0.0201414 0.0201329 0.0201247 0.020117 0.0201096 0.0201026 0.0200959 0.0200896 0.0200836 0.0200779 0.0200726 0.0200675 0.0200628 0.0200583 0.020054 0.0200501 0.0200463 0.0200428 0.0200396 0.0200365 0.0200337 0.020031 0.0200285 0.0200262 0.020024 0.020022 0.0200202 0.0200185 0.0200169 0.0200154 0.020014 0.0200128 0.0200117 0.0200106 0.0200096 0.0200088 0.0200079 0.0200072 0.0200065 0.0200059 0.0200054 0.0200049 0.0200044 0.020004 0.0200036 0.0200033 0.020003 0.0200028 0.0200025 0.0200024 0.0200022 0.020002 0.0200019 0.0200018 0.0200017 0.0200017 0.0200016 0.0200016 0.0200016 0.0200016 0.0200016 0.0200016 0.0200016 0.0200016 0.0200017 0.0200018 0.0200018 0.0200019 0.020002 0.0200021 0.0200022 0.0200023 0.0200024 0.0200025 0.0200027 0.0200028 0.020003 0.0200031 0.0200033 0.0200035 0.0200037 0.0200039 0.0200041 0.0200043 0.0200045 0.0200047 0.0200049 0.0200051 0.0200053 0.0200056 0.0200058 0.020006 0.0200063 0.0200065 0.0200068 0.020007 0.0200072 0.0200075 0.0200077 0.020008 0.0200082 0.0200084 0.0200087 0.0200089 0.0200091 0.0200093 0.0200095 0.0200097 0.0200099 0.02001 0.0200102 0.0200103 0.0200104 0.0200105 0.0200106 0.0200106 0.0200107 0.0200107 0.0200106 0.0200106 0.0200105 0.0200103 0.0200102 0.02001 0.0200097 0.0200094 0.0200091 0.0200087 0.0200083 0.0200078 0.0200073 0.0200067 0.0200061 0.0200053 0.0200046 0.0200037 0.0200028 0.0200019 0.0200008 0.0199997 0.0199985 0.0199972 0.0199959 0.0199944 0.0199929 0.0199913 0.0199897 0.0199879 0.019986 0.0199841 0.019982 0.0199799 0.0199777 0.0199754 0.019973 0.0199705 0.0199679 0.0199652 0.0199624 0.0199595 0.0199566 0.0199535 0.0199503 0.0199471 0.0199438 0.0199403 0.0199368 0.0199332 0.0199295 0.0199258 0.0199219 0.019918 0.019914 0.0199099 0.0199058 0.0199016 0.0198973 0.019893 0.0198886 0.0198842 0.0198797 0.0198751 0.0198706 0.0198659 0.0198613 0.0198566 0.0198519 0.0198471 0.0198424 0.0198376 0.0198329 0.0198281 0.0198233 0.0198185 0.0198138 0.019809 0.0198043 0.0197996 0.0197949 0.0197902 0.0197856 0.0197811 0.0197765 0.019772 0.0197676 0.0197632 0.0197589 0.0197546 0.0197504 0.0197463 0.0197423 0.0197382 0.0197343 0.0197305 0.0197267 0.0197231 0.0197196 0.0197161 0.0197129 0.0197099 0.0197069 0.0197041 0.0197014 0.0196989 0.0196964 0.0196941 0.019692 0.01969 0.0196881 0.0196864 0.0196848 0.0196834 0.0196821 0.019681 0.01968 0.0196792 0.0196785 0.019678 0.0196776 0.0196774 0.0196774 0.0196775 0.0196777 0.0196781 0.0196787 0.0196794 0.0196803 0.0196813 0.0196824 0.0196837 0.0196852 0.0196868 0.0196885 0.0196904 0.0196924 0.0196945 0.0196968 0.0196992 0.0197017 0.0197043 0.0197071 0.01971 0.0197129 0.019716 0.0197192 0.0197225 0.0197259 0.0197294 0.019733 0.0197367 0.0197404 0.0197443 0.0197482 0.0197522 0.0197562 0.0197604 0.0197645 0.0197688 0.0197731 0.0197775 0.019782 0.0197864 0.019791 0.0197956 0.0198003 0.019805 0.0198098 0.0198146 0.0198195 0.0198245 0.0198296 0.0198347 0.0198398 0.0198451 0.0198505 0.0198559 0.0198615 0.0198671 0.0198729 0.0198788 0.0198849 0.0198911 0.0198974 0.019904 0.0199107 0.0199176 0.0199247 0.0199321 0.0199396 0.0199475 0.0199556 0.0199639 0.0199726 0.0199815 0.0199908 0.0200003 0.0200102 0.0200204 0.0200309 0.0200418 0.0200529 0.0200644 0.0200761 0.0200881 0.0201004 0.0201129 0.0201257 0.0201386 0.0201517 0.0201648 0.020178 0.0201912 0.0202044 0.0202174 0.0202302 0.0202428 0.020255 0.0202668 0.020278 0.0202886 0.0202985 0.0203075 0.0203155 0.0203225 0.0203281 0.0203324 0.0203351 0.020336 0.0203351 0.0203319 0.0203265 0.0203184 0.0203075 0.0202935 0.0202762 0.0202552 0.0202303 0.0202012 0.0201675 0.020129 0.0200851 0.0200355 0.0199782 0.0199119 0.0198377 0.0197545 0.0196601 0.01955 0.0194128 0.0192272 0.0189848 0.0186649 0.0182272 0.0176441 0.0170319 0.0175255 0 0 0 0 
0.0192686 0.0192348 0.0191718 0.0191198 0.0190703 0.0190224 0.0189757 0.0189301 0.0188855 0.0188419 0.0187994 0.018758 0.0187177 0.0186787 0.0186409 0.0186043 0.018569 0.018535 0.0185023 0.018471 0.0184411 0.0184126 0.0183855 0.0183598 0.0183356 0.0183129 0.0182916 0.0182719 0.0182536 0.0182369 0.0182217 0.0182081 0.018196 0.0181855 0.0181765 0.0181691 0.0181633 0.018159 0.0181563 0.0181552 0.0181556 0.0181575 0.018161 0.0181661 0.0181726 0.0181807 0.0181902 0.0182013 0.0182138 0.0182277 0.0182431 0.0182599 0.0182781 0.0182976 0.0183185 0.0183406 0.0183641 0.0183888 0.0184147 0.0184418 0.0184701 0.0184994 0.0185298 0.0185613 0.0185937 0.018627 0.0186613 0.0186964 0.0187323 0.0187689 0.0188063 0.0188444 0.0188831 0.0189224 0.0189622 0.0190026 0.0190436 0.019085 0.0191268 0.0191691 0.0192118 0.0192549 0.0192984 0.0193422 0.0193863 0.0194308 0.0194755 0.0195204 0.0195656 0.019611 0.0196565 0.0197021 0.0197478 0.0197933 0.0198383 0.0198819 0.0199232 0.0199608 0.0199942 0.020028 0.0200638 0.0201015 0.0201404 0.0201799 0.02022 0.0202603 0.0203008 0.0203414 0.020382 0.0204225 0.0204628 0.020503 0.0205429 0.0205825 0.0206218 0.0206607 0.0206992 0.0207372 0.0207748 0.0208117 0.0208481 0.0208839 0.020919 0.0209535 0.0209872 0.0210201 0.0210523 0.0210837 0.0211143 0.021144 0.0211728 0.0212007 0.0212276 0.0212537 0.0212787 0.0213028 0.0213259 0.0213479 0.021369 0.021389 0.0214079 0.0214258 0.0214425 0.0214583 0.0214729 0.0214864 0.0214989 0.0215102 0.0215204 0.0215296 0.0215376 0.0215445 0.0215504 0.0215551 0.0215588 0.0215614 0.0215629 0.0215634 0.0215628 0.0215612 0.0215585 0.0215548 0.0215501 0.0215445 0.0215378 0.0215303 0.0215217 0.0215123 0.021502 0.0214908 0.0214787 0.0214659 0.0214522 0.0214377 0.0214225 0.0214066 0.02139 0.0213727 0.0213547 0.0213362 0.0213171 0.0212974 0.0212771 0.0212564 0.0212353 0.0212137 0.0211917 0.0211693 0.0211466 0.0211236 0.0211004 0.0210769 0.0210532 0.0210293 0.0210053 0.0209811 0.0209569 0.0209327 0.0209084 0.0208841 0.0208599 0.0208358 0.0208117 0.0207878 0.020764 0.0207404 0.020717 0.0206938 0.0206709 0.0206483 0.0206259 0.0206039 0.0205821 0.0205608 0.0205398 0.0205191 0.0204989 0.0204791 0.0204597 0.0204407 0.0204222 0.0204041 0.0203864 0.0203693 0.0203526 0.0203363 0.0203206 0.0203053 0.0202905 0.0202762 0.0202623 0.020249 0.0202361 0.0202236 0.0202117 0.0202002 0.0201891 0.0201785 0.0201683 0.0201586 0.0201493 0.0201404 0.0201319 0.0201238 0.0201161 0.0201087 0.0201017 0.0200951 0.0200888 0.0200829 0.0200773 0.020072 0.0200669 0.0200622 0.0200577 0.0200536 0.0200496 0.0200459 0.0200424 0.0200392 0.0200362 0.0200333 0.0200307 0.0200282 0.0200259 0.0200238 0.0200218 0.02002 0.0200183 0.0200167 0.0200152 0.0200139 0.0200127 0.0200115 0.0200105 0.0200095 0.0200087 0.0200079 0.0200071 0.0200065 0.0200059 0.0200053 0.0200048 0.0200044 0.020004 0.0200036 0.0200033 0.020003 0.0200027 0.0200025 0.0200023 0.0200022 0.020002 0.0200019 0.0200018 0.0200017 0.0200016 0.0200016 0.0200016 0.0200015 0.0200015 0.0200015 0.0200016 0.0200016 0.0200016 0.0200017 0.0200017 0.0200018 0.0200019 0.020002 0.0200021 0.0200022 0.0200023 0.0200024 0.0200025 0.0200027 0.0200028 0.020003 0.0200031 0.0200033 0.0200035 0.0200037 0.0200038 0.020004 0.0200042 0.0200044 0.0200047 0.0200049 0.0200051 0.0200053 0.0200055 0.0200058 0.020006 0.0200063 0.0200065 0.0200067 0.020007 0.0200072 0.0200075 0.0200077 0.0200079 0.0200082 0.0200084 0.0200086 0.0200089 0.0200091 0.0200093 0.0200095 0.0200097 0.0200099 0.02001 0.0200102 0.0200103 0.0200104 0.0200105 0.0200106 0.0200107 0.0200107 0.0200107 0.0200107 0.0200106 0.0200105 0.0200104 0.0200102 0.02001 0.0200098 0.0200095 0.0200092 0.0200088 0.0200084 0.0200079 0.0200074 0.0200068 0.0200062 0.0200055 0.0200047 0.0200039 0.020003 0.020002 0.020001 0.0199999 0.0199987 0.0199975 0.0199961 0.0199947 0.0199932 0.0199916 0.01999 0.0199882 0.0199864 0.0199845 0.0199824 0.0199803 0.0199781 0.0199758 0.0199735 0.019971 0.0199684 0.0199657 0.019963 0.0199601 0.0199572 0.0199541 0.019951 0.0199478 0.0199445 0.0199411 0.0199376 0.019934 0.0199304 0.0199266 0.0199228 0.0199189 0.0199149 0.0199109 0.0199068 0.0199026 0.0198983 0.019894 0.0198896 0.0198852 0.0198807 0.0198762 0.0198717 0.0198671 0.0198624 0.0198578 0.0198531 0.0198483 0.0198436 0.0198388 0.0198341 0.0198293 0.0198245 0.0198198 0.019815 0.0198103 0.0198055 0.0198008 0.0197961 0.0197915 0.0197868 0.0197822 0.0197777 0.0197732 0.0197687 0.0197643 0.01976 0.0197557 0.0197515 0.0197473 0.0197432 0.0197392 0.0197353 0.0197315 0.0197278 0.0197242 0.0197208 0.0197175 0.0197143 0.0197112 0.0197083 0.0197054 0.0197027 0.0197002 0.0196977 0.0196954 0.0196933 0.0196913 0.0196894 0.0196876 0.0196861 0.0196846 0.0196833 0.0196822 0.0196812 0.0196804 0.0196797 0.0196791 0.0196788 0.0196785 0.0196785 0.0196786 0.0196788 0.0196792 0.0196797 0.0196804 0.0196813 0.0196822 0.0196834 0.0196847 0.0196861 0.0196877 0.0196894 0.0196912 0.0196932 0.0196953 0.0196976 0.0196999 0.0197024 0.0197051 0.0197078 0.0197107 0.0197136 0.0197167 0.0197199 0.0197232 0.0197265 0.01973 0.0197336 0.0197372 0.019741 0.0197448 0.0197487 0.0197527 0.0197567 0.0197608 0.019765 0.0197692 0.0197736 0.0197779 0.0197824 0.0197868 0.0197914 0.019796 0.0198006 0.0198054 0.0198101 0.019815 0.0198199 0.0198248 0.0198299 0.019835 0.0198401 0.0198454 0.0198507 0.0198562 0.0198617 0.0198674 0.0198731 0.019879 0.0198851 0.0198913 0.0198976 0.0199041 0.0199108 0.0199177 0.0199248 0.0199322 0.0199397 0.0199475 0.0199556 0.0199639 0.0199726 0.0199815 0.0199907 0.0200002 0.0200101 0.0200202 0.0200307 0.0200415 0.0200526 0.020064 0.0200757 0.0200877 0.0200999 0.0201124 0.0201251 0.020138 0.020151 0.0201641 0.0201773 0.0201904 0.0202035 0.0202165 0.0202293 0.0202419 0.0202541 0.0202658 0.020277 0.0202876 0.0202975 0.0203065 0.0203146 0.0203215 0.0203272 0.0203316 0.0203343 0.0203354 0.0203345 0.0203315 0.0203262 0.0203183 0.0203076 0.0202938 0.0202768 0.0202561 0.0202315 0.0202027 0.0201695 0.0201314 0.020088 0.0200388 0.0199832 0.0199195 0.0198461 0.0197633 0.0196674 0.0195536 0.0194125 0.0192281 0.0189875 0.0186654 0.0182303 0.0176674 0.017031 0.0163903 0.0150897 0.0132965 0.0127055 0 
0.0192686 0.0192255 0.0191716 0.0191202 0.0190706 0.0190225 0.0189757 0.01893 0.0188853 0.0188417 0.0187992 0.0187578 0.0187176 0.0186785 0.0186407 0.0186041 0.0185688 0.0185349 0.0185022 0.0184709 0.018441 0.0184125 0.0183855 0.0183598 0.0183356 0.0183129 0.0182917 0.0182719 0.0182537 0.018237 0.0182218 0.0182082 0.0181961 0.0181856 0.0181767 0.0181693 0.0181635 0.0181592 0.0181565 0.0181554 0.0181558 0.0181578 0.0181613 0.0181663 0.0181729 0.0181809 0.0181905 0.0182016 0.0182141 0.018228 0.0182434 0.0182602 0.0182784 0.0182979 0.0183188 0.018341 0.0183644 0.0183891 0.0184151 0.0184422 0.0184704 0.0184998 0.0185302 0.0185616 0.0185941 0.0186274 0.0186617 0.0186968 0.0187327 0.0187693 0.0188067 0.0188448 0.0188835 0.0189228 0.0189627 0.0190031 0.019044 0.0190855 0.0191273 0.0191696 0.0192124 0.0192555 0.0192989 0.0193427 0.0193869 0.0194313 0.019476 0.0195209 0.0195661 0.0196114 0.0196569 0.0197024 0.0197478 0.0197928 0.0198368 0.0198791 0.019919 0.0199564 0.019992 0.020028 0.020065 0.0201031 0.0201421 0.0201817 0.0202218 0.0202621 0.0203026 0.0203432 0.0203837 0.0204242 0.0204646 0.0205047 0.0205447 0.0205843 0.0206236 0.0206625 0.0207009 0.020739 0.0207765 0.0208134 0.0208498 0.0208855 0.0209206 0.020955 0.0209887 0.0210217 0.0210538 0.0210852 0.0211157 0.0211454 0.0211742 0.021202 0.021229 0.021255 0.02128 0.021304 0.0213271 0.0213491 0.0213701 0.02139 0.0214089 0.0214268 0.0214435 0.0214592 0.0214738 0.0214873 0.0214997 0.021511 0.0215212 0.0215302 0.0215382 0.0215451 0.0215509 0.0215556 0.0215593 0.0215618 0.0215633 0.0215637 0.0215631 0.0215614 0.0215587 0.021555 0.0215503 0.0215445 0.0215379 0.0215302 0.0215217 0.0215122 0.0215018 0.0214906 0.0214785 0.0214656 0.0214519 0.0214374 0.0214222 0.0214062 0.0213895 0.0213722 0.0213542 0.0213356 0.0213165 0.0212967 0.0212765 0.0212558 0.0212346 0.0212129 0.0211909 0.0211685 0.0211458 0.0211228 0.0210995 0.021076 0.0210523 0.0210284 0.0210043 0.0209802 0.0209559 0.0209317 0.0209074 0.0208831 0.0208589 0.0208347 0.0208107 0.0207867 0.020763 0.0207394 0.020716 0.0206928 0.0206699 0.0206472 0.0206249 0.0206028 0.0205811 0.0205598 0.0205388 0.0205182 0.0204979 0.0204781 0.0204587 0.0204398 0.0204212 0.0204032 0.0203856 0.0203684 0.0203517 0.0203355 0.0203198 0.0203045 0.0202897 0.0202754 0.0202616 0.0202483 0.0202354 0.020223 0.020211 0.0201995 0.0201885 0.0201779 0.0201678 0.020158 0.0201488 0.0201399 0.0201314 0.0201233 0.0201156 0.0201083 0.0201013 0.0200947 0.0200885 0.0200826 0.0200769 0.0200716 0.0200666 0.0200619 0.0200575 0.0200533 0.0200494 0.0200457 0.0200422 0.020039 0.020036 0.0200332 0.0200305 0.0200281 0.0200258 0.0200237 0.0200217 0.0200199 0.0200182 0.0200166 0.0200151 0.0200138 0.0200126 0.0200115 0.0200104 0.0200095 0.0200086 0.0200078 0.0200071 0.0200064 0.0200058 0.0200053 0.0200048 0.0200043 0.0200039 0.0200036 0.0200033 0.020003 0.0200027 0.0200025 0.0200023 0.0200021 0.020002 0.0200019 0.0200018 0.0200017 0.0200016 0.0200016 0.0200016 0.0200015 0.0200015 0.0200015 0.0200016 0.0200016 0.0200016 0.0200017 0.0200017 0.0200018 0.0200019 0.020002 0.0200021 0.0200022 0.0200023 0.0200024 0.0200025 0.0200027 0.0200028 0.020003 0.0200031 0.0200033 0.0200035 0.0200036 0.0200038 0.020004 0.0200042 0.0200044 0.0200046 0.0200048 0.0200051 0.0200053 0.0200055 0.0200058 0.020006 0.0200062 0.0200065 0.0200067 0.020007 0.0200072 0.0200074 0.0200077 0.0200079 0.0200082 0.0200084 0.0200086 0.0200088 0.0200091 0.0200093 0.0200095 0.0200097 0.0200098 0.02001 0.0200102 0.0200103 0.0200104 0.0200105 0.0200106 0.0200107 0.0200107 0.0200107 0.0200107 0.0200106 0.0200105 0.0200104 0.0200103 0.0200101 0.0200098 0.0200096 0.0200092 0.0200089 0.0200085 0.020008 0.0200075 0.0200069 0.0200063 0.0200056 0.0200049 0.020004 0.0200032 0.0200022 0.0200012 0.0200001 0.0199989 0.0199977 0.0199964 0.019995 0.0199935 0.019992 0.0199903 0.0199886 0.0199868 0.0199849 0.0199829 0.0199808 0.0199786 0.0199763 0.019974 0.0199715 0.019969 0.0199664 0.0199636 0.0199608 0.0199579 0.0199549 0.0199518 0.0199486 0.0199453 0.0199419 0.0199385 0.019935 0.0199313 0.0199276 0.0199238 0.01992 0.019916 0.019912 0.0199079 0.0199038 0.0198996 0.0198953 0.019891 0.0198866 0.0198821 0.0198776 0.0198731 0.0198685 0.0198639 0.0198593 0.0198546 0.0198499 0.0198452 0.0198405 0.0198357 0.019831 0.0198262 0.0198214 0.0198167 0.019812 0.0198072 0.0198025 0.0197978 0.0197932 0.0197885 0.0197839 0.0197794 0.0197748 0.0197704 0.019766 0.0197616 0.0197573 0.0197531 0.019749 0.0197449 0.0197409 0.0197371 0.0197333 0.0197297 0.0197262 0.0197228 0.0197195 0.0197163 0.0197132 0.0197103 0.0197074 0.0197047 0.0197022 0.0196997 0.0196974 0.0196953 0.0196932 0.0196914 0.0196896 0.019688 0.0196866 0.0196853 0.0196841 0.0196831 0.0196823 0.0196816 0.019681 0.0196806 0.0196804 0.0196803 0.0196803 0.0196805 0.0196809 0.0196814 0.0196821 0.0196829 0.0196839 0.019685 0.0196862 0.0196876 0.0196892 0.0196908 0.0196926 0.0196946 0.0196967 0.0196989 0.0197012 0.0197037 0.0197063 0.019709 0.0197118 0.0197147 0.0197177 0.0197209 0.0197241 0.0197275 0.0197309 0.0197344 0.0197381 0.0197418 0.0197455 0.0197494 0.0197533 0.0197573 0.0197614 0.0197656 0.0197698 0.0197741 0.0197784 0.0197828 0.0197873 0.0197918 0.0197964 0.019801 0.0198057 0.0198104 0.0198153 0.0198201 0.0198251 0.0198301 0.0198352 0.0198403 0.0198456 0.0198509 0.0198563 0.0198618 0.0198675 0.0198732 0.0198791 0.0198851 0.0198913 0.0198976 0.0199041 0.0199108 0.0199177 0.0199248 0.0199321 0.0199396 0.0199474 0.0199555 0.0199638 0.0199724 0.0199813 0.0199904 0.0199999 0.0200097 0.0200199 0.0200303 0.020041 0.0200521 0.0200635 0.0200751 0.0200871 0.0200993 0.0201117 0.0201244 0.0201372 0.0201501 0.0201632 0.0201763 0.0201895 0.0202025 0.0202155 0.0202282 0.0202407 0.0202528 0.0202646 0.0202758 0.0202863 0.0202962 0.0203051 0.0203132 0.0203201 0.0203258 0.0203301 0.0203329 0.020334 0.0203332 0.0203302 0.020325 0.0203172 0.0203066 0.020293 0.0202761 0.0202557 0.0202314 0.020203 0.0201701 0.0201324 0.0200895 0.0200409 0.0199859 0.0199235 0.0198523 0.0197699 0.019674 0.0195593 0.0194171 0.0192353 0.0189973 0.0186808 0.0182648 0.0177455 0.0171124 0.0162582 0.0148238 0.0125853 0.008599 -2.1684e-19 
0.0192686 0.0192218 0.0191708 0.0191202 0.0190707 0.0190225 0.0189755 0.0189297 0.018885 0.0188413 0.0187988 0.0187574 0.0187172 0.0186782 0.0186404 0.0186038 0.0185685 0.0185346 0.018502 0.0184707 0.0184408 0.0184123 0.0183853 0.0183596 0.0183355 0.0183128 0.0182915 0.0182718 0.0182536 0.0182369 0.0182218 0.0182082 0.0181961 0.0181856 0.0181767 0.0181693 0.0181635 0.0181593 0.0181566 0.0181555 0.0181559 0.0181579 0.0181615 0.0181665 0.0181731 0.0181812 0.0181908 0.0182018 0.0182143 0.0182283 0.0182437 0.0182605 0.0182787 0.0182983 0.0183191 0.0183413 0.0183648 0.0183895 0.0184155 0.0184426 0.0184708 0.0185002 0.0185306 0.0185621 0.0185945 0.0186279 0.0186621 0.0186972 0.0187331 0.0187698 0.0188072 0.0188453 0.018884 0.0189233 0.0189632 0.0190037 0.0190446 0.0190861 0.019128 0.0191703 0.019213 0.0192561 0.0192996 0.0193434 0.0193876 0.019432 0.0194767 0.0195216 0.0195667 0.019612 0.0196574 0.0197027 0.0197477 0.0197919 0.0198349 0.0198761 0.0199153 0.019953 0.0199899 0.0200271 0.0200649 0.0201035 0.0201427 0.0201825 0.0202226 0.020263 0.0203035 0.0203441 0.0203847 0.0204252 0.0204656 0.0205057 0.0205457 0.0205853 0.0206246 0.0206635 0.020702 0.02074 0.0207775 0.0208144 0.0208508 0.0208865 0.0209216 0.020956 0.0209897 0.0210227 0.0210548 0.0210862 0.0211167 0.0211463 0.0211751 0.021203 0.0212299 0.0212559 0.0212809 0.0213049 0.0213279 0.0213499 0.0213709 0.0213908 0.0214097 0.0214275 0.0214442 0.0214599 0.0214745 0.0214879 0.0215003 0.0215116 0.0215218 0.0215308 0.0215388 0.0215457 0.0215515 0.0215561 0.0215597 0.0215623 0.0215637 0.0215641 0.0215634 0.0215617 0.021559 0.0215553 0.0215505 0.0215448 0.0215381 0.0215304 0.0215218 0.0215123 0.021502 0.0214907 0.0214786 0.0214656 0.0214519 0.0214374 0.0214221 0.0214061 0.0213894 0.0213721 0.0213541 0.0213355 0.0213163 0.0212965 0.0212763 0.0212555 0.0212343 0.0212126 0.0211906 0.0211682 0.0211454 0.0211224 0.0210991 0.0210756 0.0210518 0.0210279 0.0210038 0.0209797 0.0209554 0.0209312 0.0209069 0.0208826 0.0208583 0.0208342 0.0208101 0.0207862 0.0207624 0.0207388 0.0207154 0.0206922 0.0206693 0.0206466 0.0206243 0.0206022 0.0205805 0.0205592 0.0205382 0.0205176 0.0204973 0.0204775 0.0204581 0.0204392 0.0204207 0.0204026 0.020385 0.0203679 0.0203512 0.020335 0.0203193 0.020304 0.0202892 0.0202749 0.0202611 0.0202478 0.0202349 0.0202225 0.0202106 0.0201991 0.0201881 0.0201775 0.0201674 0.0201577 0.0201484 0.0201395 0.0201311 0.020123 0.0201153 0.020108 0.0201011 0.0200945 0.0200882 0.0200823 0.0200767 0.0200714 0.0200664 0.0200617 0.0200573 0.0200531 0.0200492 0.0200455 0.0200421 0.0200389 0.0200358 0.020033 0.0200304 0.020028 0.0200257 0.0200236 0.0200216 0.0200198 0.0200181 0.0200165 0.0200151 0.0200138 0.0200125 0.0200114 0.0200104 0.0200094 0.0200086 0.0200078 0.020007 0.0200064 0.0200058 0.0200052 0.0200048 0.0200043 0.0200039 0.0200036 0.0200032 0.020003 0.0200027 0.0200025 0.0200023 0.0200021 0.020002 0.0200019 0.0200018 0.0200017 0.0200016 0.0200016 0.0200015 0.0200015 0.0200015 0.0200015 0.0200015 0.0200016 0.0200016 0.0200017 0.0200017 0.0200018 0.0200019 0.0200019 0.020002 0.0200021 0.0200023 0.0200024 0.0200025 0.0200026 0.0200028 0.0200029 0.0200031 0.0200033 0.0200034 0.0200036 0.0200038 0.020004 0.0200042 0.0200044 0.0200046 0.0200048 0.020005 0.0200053 0.0200055 0.0200057 0.020006 0.0200062 0.0200064 0.0200067 0.0200069 0.0200072 0.0200074 0.0200076 0.0200079 0.0200081 0.0200084 0.0200086 0.0200088 0.020009 0.0200092 0.0200094 0.0200096 0.0200098 0.02001 0.0200101 0.0200103 0.0200104 0.0200105 0.0200106 0.0200106 0.0200107 0.0200107 0.0200106 0.0200106 0.0200105 0.0200104 0.0200103 0.0200101 0.0200099 0.0200096 0.0200093 0.0200089 0.0200085 0.0200081 0.0200076 0.020007 0.0200064 0.0200057 0.020005 0.0200042 0.0200033 0.0200024 0.0200014 0.0200003 0.0199992 0.019998 0.0199967 0.0199953 0.0199939 0.0199923 0.0199907 0.019989 0.0199872 0.0199853 0.0199834 0.0199813 0.0199792 0.019977 0.0199746 0.0199722 0.0199697 0.0199671 0.0199644 0.0199616 0.0199588 0.0199558 0.0199527 0.0199496 0.0199464 0.019943 0.0199396 0.0199361 0.0199326 0.0199289 0.0199252 0.0199213 0.0199174 0.0199135 0.0199094 0.0199053 0.0199012 0.0198969 0.0198926 0.0198883 0.0198839 0.0198794 0.019875 0.0198704 0.0198658 0.0198612 0.0198566 0.0198519 0.0198472 0.0198425 0.0198378 0.0198331 0.0198283 0.0198236 0.0198189 0.0198141 0.0198094 0.0198047 0.0198 0.0197954 0.0197907 0.0197861 0.0197816 0.0197771 0.0197726 0.0197682 0.0197639 0.0197597 0.0197555 0.0197514 0.0197474 0.0197435 0.0197397 0.0197359 0.0197323 0.0197288 0.0197254 0.0197221 0.019719 0.0197159 0.0197129 0.0197101 0.0197074 0.0197049 0.0197024 0.0197001 0.0196979 0.0196959 0.019694 0.0196923 0.0196907 0.0196892 0.0196879 0.0196867 0.0196857 0.0196848 0.0196841 0.0196835 0.0196831 0.0196828 0.0196827 0.0196827 0.0196829 0.0196832 0.0196837 0.0196843 0.0196851 0.019686 0.0196871 0.0196883 0.0196896 0.0196911 0.0196927 0.0196945 0.0196964 0.0196984 0.0197006 0.0197029 0.0197053 0.0197078 0.0197104 0.0197132 0.0197161 0.0197191 0.0197221 0.0197253 0.0197286 0.019732 0.0197355 0.019739 0.0197427 0.0197464 0.0197502 0.0197541 0.0197581 0.0197621 0.0197662 0.0197704 0.0197746 0.0197789 0.0197832 0.0197877 0.0197921 0.0197967 0.0198013 0.0198059 0.0198106 0.0198154 0.0198202 0.0198252 0.0198301 0.0198352 0.0198403 0.0198455 0.0198508 0.0198562 0.0198617 0.0198673 0.0198731 0.0198789 0.0198849 0.0198911 0.0198974 0.0199038 0.0199105 0.0199173 0.0199244 0.0199317 0.0199392 0.019947 0.019955 0.0199632 0.0199718 0.0199807 0.0199898 0.0199993 0.020009 0.0200191 0.0200295 0.0200402 0.0200512 0.0200625 0.0200741 0.020086 0.0200981 0.0201105 0.0201231 0.0201358 0.0201487 0.0201617 0.0201748 0.0201878 0.0202008 0.0202137 0.0202264 0.0202388 0.0202509 0.0202625 0.0202737 0.0202842 0.0202939 0.0203029 0.0203109 0.0203178 0.0203234 0.0203278 0.0203305 0.0203316 0.0203308 0.0203279 0.0203228 0.0203151 0.0203047 0.0202913 0.0202746 0.0202545 0.0202305 0.0202025 0.0201701 0.020133 0.0200907 0.0200429 0.0199887 0.0199274 0.0198573 0.0197766 0.0196817 0.0195676 0.0194266 0.0192471 0.0190132 0.0187068 0.0183132 0.0178192 0.0171775 0.0162493 0.0147581 0.0122307 0.00774412 -9.75782e-19 