# vtk DataFile Version 2.0
iteration 378
ASCII

DATASET STRUCTURED_POINTS
DIMENSIONS 621 64 1
ORIGIN 0 0 0
SPACING 0.00161031 0.00161031 0.00161031

POINT_DATA 39744
SCALARS P float 1
LOOKUP_TABLE default
0 0 0 0 0 0 0 0 0 0 0 0 0 0 0 0 0 0 0 0 0 0 0 0 0 0 0 0 0 0 0 0 0 0 0 0 0 0 0 0 0 0 0 0 0 0 0 0 0 0 0 0 0 0 0 0 0 0 0 0 0 0 0 0 0 0 0 0 0 0 0 0 0 0 0 0 0 0 0 0 0 0 0 0 0 0 0 0 0 0 0 0 0 0 0 0 0 0 0 0 0 0 0 0 0 0 0 0 0 0 0 0 0 0 0 0 0 0 0 0 0 0 0 0 0 0 0 0 0 0 0 0 0 0 0 0 0 0 0 0 0 0 0 0 0 0 0 0 0 0 0 0 0 0 0 0 0 0 0 0 0 0 0 0 0 0 0 0 0 0 0 0 0 0 0 0 0 0 0 0 0 0 0 0 0 0 0 0 0 0 0 0 0 0 0 0 0 0 0 0 0 0 0 0 0 0 0 0 0 0 0 0 0 0 0 0 0 0 0 0 0 0 0 0 0 0 0 0 0 0 0 0 0 0 0 0 0 0 0 0 0 0 0 0 0 0 0 0 0 0 0 0 0 0 0 0 0 0 0 0 0 0 0 0 0 0 0 0 0 0 0 0 0 0 0 0 0 0 0 0 0 0 0 0 0 0 0 0 0 0 0 0 0 0 0 0 0 0 0 0 0 0 0 0 0 0 0 0 0 0 0 0 0 0 0 0 0 0 0 0 0 0 0 0 0 0 0 0 0 0 0 0 0 0 0 0 0 0 0 0 0 0 0 0 0 0 0 0 0 0 0 0 0 0 0 0 0 0 0 0 0 0 0 0 0 0 0 0 0 0 0 0 0 0 0 0 0 0 0 0 0 0 0 0 0 0 0 0 0 0 0 0 0 0 0 0 0 0 0 0 0 0 0 0 0 0 0 0 0 0 0 0 0 0 0 0 0 0 0 0 0 0 0 0 0 0 0 0 0 0 0 0 0 0 0 0 0 0 0 0 0 0 0 0 0 0 0 0 0 0 0 0 0 0 0 0 0 0 0 0 0 0 0 0 0 0 0 0 0 0 0 0 0 0 0 0 0 0 0 0 0 0 0 0 0 0 0 0 0 0 0 0 0 0 0 0 0 0 0 0 0 0 0 0 0 0 0 0 0 0 0 0 0 0 0 0 0 0 0 0 0 0 0 0 0 0 0 0 0 0 0 0 0 0 0 0 0 0 0 0 0 0 0 0 0 0 0 0 0 0 0 0 0 0 0 0 0 0 0 0 0 0 0 0 0 0 0 0 0 0 0 0 0 0 0 0 0 0 0 0 0 0 0 0 0 0 0 0 0 0 0 0 0 0 0 0 0 0 0 0 0 0 0 0 0 0 0 0 0 0 0 0 0 0 0 0 0 0 0 0 0 
0.02 0.0199999 0.0199998 0.0199997 0.0199996 0.0199996 0.0199996 0.0199996 0.0199997 0.0199998 0.02 0.0200002 0.0200006 0.0200009 0.0200013 0.0200017 0.020002 0.0200021 0.0200022 0.0200025 0.020003 0.0200038 0.020005 0.0200066 0.020009 0.0200122 0.0200166 0.0200223 0.0200296 0.0200388 0.0200501 0.0200638 0.0200801 0.0200991 0.020121 0.0201458 0.0201736 0.0202042 0.0202375 0.0202734 0.0203114 0.0203514 0.0203928 0.0204353 0.0204784 0.0205215 0.0205641 0.0206057 0.0206456 0.0206831 0.0207176 0.0207482 0.0207734 0.0207909 0.0207966 0.0207838 0.0207434 0.0206649 0.020536 0.0203574 0.0201307 0.0198924 0.0196473 0.0193308 0.0192143 0.0188296 0.0187198 0.0180375 0.0170614 0.0158717 0.0146568 0.0131252 0.0113532 0.00936694 0.00724486 0.00502933 0.00236678 0.00100613 0 0 0 0 0 0 0 0 0 0 0 0 0 0 0 0 0 0 0 0 0 0 0 0 0 0 0 0 0 0 0 0 0 0 0 0 0 0 0 0 0 0 0 0 0 0 0 0 0 0 0 0 0 0 0 0 0 0 0 0 0 0 0 0 0 0 0 0 0 0 0 0 0 0 0 0 0 0 0 0 0 0 0 0 0 0 0 0 0 0 0 0 0 0 0 0 0 0 0 0 0 0 0 0 0 0 0 0 0 0 0 0 0 0 0 0 0 0 0 0 0 0 0 0 0 0 0 0 0 0 0 0 0 0 0 0 0 0 0 0 0 0 0 0 0 0 0 0 0 0 0 0 0 0 0 0 0 0 0 0 0 0 0 0 0 0 0 0 0 0 0 0 0 0 0 0 0 0 0 0 0 0 0 0 0 0 0 0 0 0 0 0 0 0 0 0 0 0 0 0 0 0 0 0 0 0 0 0 0 0 0 0 0 0 0 0 0 0 0 0 0 0 0 0 0 0 0 0 0 0 0 0 0 0 0 0 0 0 0 0 0 0 0 0 0 0 0 0 0 0 0 0 0 0 0 0 0 0 0 0 0 0 0 0 0 0 0 0 0 0 0 0 0 0 0 0 0 0 0 0 0 0 0 0 0 0 0 0 0 0 0 0 0 0 0 0 0 0 0 0 0 0 0 0 0 0 0 0 0 0 0 0 0 0 0 0 0 0 0 0 0 0 0 0 0 0 0 0 0 0 0 0 0 0 0 0 0 0 0 0 0 0 0 0 0 0 0 0 0 0 0 0 0 0 0 0 0 0 0 0 0 0 0 0 0 0 0 0 0 0 0 0 0 0 0 0 0 0 0 0 0 0 0 0 0 0 0 0 0 0 0 0 0 0 0 0 0 0 0 0 0 0 0 0 0 0 0 0 0 0 0 0 0 0 0 0 0 0 0 0 0 0 0 0 0 0 0 0 0 0 0 0 0 0 0 0 0 0 0 0 0 0 0 0 0 0 0 0 0 0 0 0 0 0 0 0 0 0 0 0 0 0 0 0 0 0 0 0 0 0 0 0 0 0 0 0 0 0 0 0 0 0 0 0 0 0 0 0 0 0 0 0 0 0 0 0 0 0 0 0 0 0 0 0 0 0 0 0 0 0 0 0 0 0 0 0 0 0 0 0 0 0 0 0 0 0 0 0 0 0 0 0 0 0 0 0 0 0 0 0 0 0 0 
0.02 0.0199999 0.0199998 0.0199998 0.0199997 0.0199997 0.0199997 0.0199997 0.0199998 0.02 0.0200002 0.0200004 0.0200007 0.020001 0.0200013 0.0200016 0.0200018 0.020002 0.0200022 0.0200025 0.0200031 0.0200038 0.0200049 0.0200065 0.0200088 0.020012 0.0200162 0.0200218 0.0200289 0.0200379 0.020049 0.0200625 0.0200784 0.0200971 0.0201187 0.0201431 0.0201704 0.0202006 0.0202334 0.0202687 0.0203062 0.0203456 0.0203864 0.0204282 0.0204706 0.020513 0.0205548 0.0205955 0.0206345 0.0206711 0.0207046 0.0207341 0.0207583 0.0207747 0.0207792 0.0207652 0.0207239 0.0206457 0.0205199 0.0203505 0.0201447 0.019954 0.0197317 0.0195569 0.0192353 0.0189664 0.0184847 0.0180575 0.0170692 0.0158534 0.0145976 0.0130839 0.0113315 0.00934874 0.00722376 0.00493682 0.00253285 -0.000233992 -0.00440758 -0.00782409 -0.0118339 0 0 0 0 0 0 0 0 0 0 0 0 0 0 0 0 0 0 0 0 0 0 0 0 0 0 0 0 0 0 0 0 0 0 0 0 0 0 0 0 0 0 0 0 0 0 0 0 0 0 0 0 0 0 0 0 0 0 0 0 0 0 0 0 0 0 0 0 0 0 0 0 0 0 0 0 0 0 0 0 0 0 0 0 0 0 0 0 0 0 0 0 0 0 0 0 0 0 0 0 0 0 0 0 0 0 0 0 0 0 0 0 0 0 0 0 0 0 0 0 0 0 0 0 0 0 0 0 0 0 0 0 0 0 0 0 0 0 0 0 0 0 0 0 0 0 0 0 0 0 0 0 0 0 0 0 0 0 0 0 0 0 0 0 0 0 0 0 0 0 0 0 0 0 0 0 0 0 0 0 0 0 0 0 0 0 0 0 0 0 0 0 0 0 0 0 0 0 0 0 0 0 0 0 0 0 0 0 0 0 0 0 0 0 0 0 0 0 0 0 0 0 0 0 0 0 0 0 0 0 0 0 0 0 0 0 0 0 0 0 0 0 0 0 0 0 0 0 0 0 0 0 0 0 0 0 0 0 0 0 0 0 0 0 0 0 0 0 0 0 0 0 0 0 0 0 0 0 0 0 0 0 0 0 0 0 0 0 0 0 0 0 0 0 0 0 0 0 0 0 0 0 0 0 0 0 0 0 0 0 0 0 0 0 0 0 0 0 0 0 0 0 0 0 0 0 0 0 0 0 0 0 0 0 0 0 0 0 0 0 0 0 0 0 0 0 0 0 0 0 0 0 0 0 0 0 0 0 0 0 0 0 0 0 0 0 0 0 0 0 0 0 0 0 0 0 0 0 0 0 0 0 0 0 0 0 0 0 0 0 0 0 0 0 0 0 0 0 0 0 0 0 0 0 0 0 0 0 0 0 0 0 0 0 0 0 0 0 0 0 0 0 0 0 0 0 0 0 0 0 0 0 0 0 0 0 0 0 0 0 0 0 0 0 0 0 0 0 0 0 0 0 0 0 0 0 0 0 0 0 0 0 0 0 0 0 0 0 0 0 0 0 0 0 0 0 0 0 0 0 0 0 0 0 0 0 0 0 0 0 0 0 0 0 0 0 0 0 0 0 0 0 0 0 0 0 0 0 0 0 0 0 0 0 0 0 0 0 0 0 0 0 0 0 0 0 0 0 0 0 0 0 0 0 0 0 0 0 0 0 
0.02 0.0199999 0.0199999 0.0199998 0.0199998 0.0199997 0.0199998 0.0199998 0.0199999 0.0200001 0.0200003 0.0200005 0.0200008 0.0200011 0.0200014 0.0200016 0.0200019 0.0200021 0.0200023 0.0200027 0.0200032 0.020004 0.0200051 0.0200066 0.0200089 0.020012 0.0200161 0.0200216 0.0200286 0.0200375 0.0200485 0.0200617 0.0200775 0.0200959 0.0201172 0.0201413 0.0201683 0.020198 0.0202304 0.0202652 0.0203021 0.0203409 0.020381 0.020422 0.0204635 0.0205048 0.0205456 0.0205851 0.0206228 0.020658 0.02069 0.0207179 0.0207404 0.0207551 0.020758 0.0207428 0.0207018 0.0206272 0.0205135 0.0203632 0.0201979 0.0200375 0.0199224 0.0196886 0.0194647 0.0190905 0.0184051 0.017878 0.0168481 0.0157019 0.0143935 0.012892 0.0111658 0.00922056 0.007058 0.00469396 0.00217955 -0.00105483 -0.00428783 -0.00766227 -0.0115067 -0.0175612 0 0 0 0 0 0 0 0 0 0 0 0 0 0 0 0 0 0 0 0 0 0 0 0 0 0 0 0 0 0 0 0 0 0 0 0 0 0 0 0 0 0 0 0 0 0 0 0 0 0 0 0 0 0 0 0 0 0 0 0 0 0 0 0 0 0 0 0 0 0 0 0 0 0 0 0 0 0 0 0 0 0 0 0 0 0 0 0 0 0 0 0 0 0 0 0 0 0 0 0 0 0 0 0 0 0 0 0 0 0 0 0 0 0 0 0 0 0 0 0 0 0 0 0 0 0 0 0 0 0 0 0 0 0 0 0 0 0 0 0 0 0 0 0 0 0 0 0 0 0 0 0 0 0 0 0 0 0 0 0 0 0 0 0 0 0 0 0 0 0 0 0 0 0 0 0 0 0 0 0 0 0 0 0 0 0 0 0 0 0 0 0 0 0 0 0 0 0 0 0 0 0 0 0 0 0 0 0 0 0 0 0 0 0 0 0 0 0 0 0 0 0 0 0 0 0 0 0 0 0 0 0 0 0 0 0 0 0 0 0 0 0 0 0 0 0 0 0 0 0 0 0 0 0 0 0 0 0 0 0 0 0 0 0 0 0 0 0 0 0 0 0 0 0 0 0 0 0 0 0 0 0 0 0 0 0 0 0 0 0 0 0 0 0 0 0 0 0 0 0 0 0 0 0 0 0 0 0 0 0 0 0 0 0 0 0 0 0 0 0 0 0 0 0 0 0 0 0 0 0 0 0 0 0 0 0 0 0 0 0 0 0 0 0 0 0 0 0 0 0 0 0 0 0 0 0 0 0 0 0 0 0 0 0 0 0 0 0 0 0 0 0 0 0 0 0 0 0 0 0 0 0 0 0 0 0 0 0 0 0 0 0 0 0 0 0 0 0 0 0 0 0 0 0 0 0 0 0 0 0 0 0 0 0 0 0 0 0 0 0 0 0 0 0 0 0 0 0 0 0 0 0 0 0 0 0 0 0 0 0 0 0 0 0 0 0 0 0 0 0 0 0 0 0 0 0 0 0 0 0 0 0 0 0 0 0 0 0 0 0 0 0 0 0 0 0 0 0 0 0 0 0 0 0 0 0 0 0 0 0 0 0 0 0 0 0 0 0 0 0 0 0 0 0 0 0 0 0 0 0 0 0 0 0 0 0 0 0 0 0 0 0 0 0 0 0 0 0 0 0 0 0 0 0 0 0 0 0 -5.42101e-20 
0.02 0.0199999 0.0199999 0.0199998 0.0199998 0.0199998 0.0199999 0.0199999 0.0200001 0.0200002 0.0200004 0.0200007 0.0200009 0.0200012 0.0200015 0.0200017 0.020002 0.0200022 0.0200025 0.0200029 0.0200034 0.0200041 0.0200051 0.0200067 0.0200088 0.0200118 0.0200159 0.0200212 0.0200281 0.0200368 0.0200475 0.0200605 0.020076 0.0200941 0.0201149 0.0201386 0.020165 0.0201942 0.0202259 0.02026 0.0202961 0.0203339 0.0203729 0.0204128 0.020453 0.0204929 0.020532 0.0205698 0.0206056 0.0206387 0.0206686 0.0206941 0.0207143 0.0207268 0.0207277 0.0207116 0.020673 0.020608 0.0205153 0.0203983 0.020268 0.0201338 0.0200227 0.0198385 0.0196155 0.0190832 0.0184755 0.0177513 0.0167488 0.0156185 0.0143042 0.0128024 0.0110801 0.00912766 0.00695585 0.00454555 0.00178761 -0.0011619 -0.00430995 -0.00761343 -0.0112066 -0.0158561 -0.0232902 0 0 0 0 0 0 0 0 0 0 0 0 0 0 0 0 0 0 0 0 0 0 0 0 0 0 0 0 0 0 0 0 0 0 0 0 0 0 0 0 0 0 0 0 0 0 0 0 0 0 0 0 0 0 0 0 0 0 0 0 0 0 0 0 0 0 0 0 0 0 0 0 0 0 0 0 0 0 0 0 0 0 0 0 0 0 0 0 0 0 0 0 0 0 0 0 0 0 0 0 0 0 0 0 0 0 0 0 0 0 0 0 0 0 0 0 0 0 0 0 0 0 0 0 0 0 0 0 0 0 0 0 0 0 0 0 0 0 0 0 0 0 0 0 0 0 0 0 0 0 0 0 0 0 0 0 0 0 0 0 0 0 0 0 0 0 0 0 0 0 0 0 0 0 0 0 0 0 0 0 0 0 0 0 0 0 0 0 0 0 0 0 0 0 0 0 0 0 0 0 0 0 0 0 0 0 0 0 0 0 0 0 0 0 0 0 0 0 0 0 0 0 0 0 0 0 0 0 0 0 0 0 0 0 0 0 0 0 0 0 0 0 0 0 0 0 0 0 0 0 0 0 0 0 0 0 0 0 0 0 0 0 0 0 0 0 0 0 0 0 0 0 0 0 0 0 0 0 0 0 0 0 0 0 0 0 0 0 0 0 0 0 0 0 0 0 0 0 0 0 0 0 0 0 0 0 0 0 0 0 0 0 0 0 0 0 0 0 0 0 0 0 0 0 0 0 0 0 0 0 0 0 0 0 0 0 0 0 0 0 0 0 0 0 0 0 0 0 0 0 0 0 0 0 0 0 0 0 0 0 0 0 0 0 0 0 0 0 0 0 0 0 0 0 0 0 0 0 0 0 0 0 0 0 0 0 0 0 0 0 0 0 0 0 0 0 0 0 0 0 0 0 0 0 0 0 0 0 0 0 0 0 0 0 0 0 0 0 0 0 0 0 0 0 0 0 0 0 0 0 0 0 0 0 0 0 0 0 0 0 0 0 0 0 0 0 0 0 0 0 0 0 0 0 0 0 0 0 0 0 0 0 0 0 0 0 0 0 0 0 0 0 0 0 0 0 0 0 0 0 0 0 0 0 0 0 0 0 0 0 0 0 0 0 0 0 0 0 0 0 0 0 0 0 0 0 0 0 0 0 0 0 0 0 0 0 0 0 0 0 0 0 0 0 0 0 0 0 0 0 0 0 0 0 0 0 -0.00411728 0 
0.02 0.02 0.0199999 0.0199999 0.0199999 0.0199999 0.0199999 0.02 0.0200001 0.0200003 0.0200005 0.0200008 0.020001 0.0200013 0.0200016 0.0200018 0.0200021 0.0200023 0.0200026 0.020003 0.0200034 0.0200041 0.0200051 0.0200065 0.0200086 0.0200114 0.0200153 0.0200204 0.0200271 0.0200355 0.0200459 0.0200585 0.0200735 0.0200911 0.0201114 0.0201344 0.0201601 0.0201884 0.0202192 0.0202522 0.0202872 0.0203237 0.0203613 0.0203996 0.020438 0.020476 0.020513 0.0205485 0.0205818 0.0206123 0.0206393 0.0206619 0.020679 0.0206887 0.0206878 0.020672 0.0206387 0.0205886 0.0205236 0.0204433 0.0203461 0.0202367 0.0200925 0.0199243 0.0196175 0.0192613 0.0186784 0.0178964 0.0169211 0.0157907 0.0144782 0.0129591 0.0112136 0.00923076 0.00700961 0.00454988 0.00184494 -0.0010905 -0.00422537 -0.00747629 -0.0108763 -0.0146516 -0.0203311 -0.0281863 0 0 0 0 0 0 0 0 0 0 0 0 0 0 0 0 0 0 0 0 0 0 0 0 0 0 0 0 0 0 0 0 0 0 0 0 0 0 0 0 0 0 0 0 0 0 0 0 0 0 0 0 0 0 0 0 0 0 0 0 0 0 0 0 0 0 0 0 0 0 0 0 0 0 0 0 0 0 0 0 0 0 0 0 0 0 0 0 0 0 0 0 0 0 0 0 0 0 0 0 0 0 0 0 0 0 0 0 0 0 0 0 0 0 0 0 0 0 0 0 0 0 0 0 0 0 0 0 0 0 0 0 0 0 0 0 0 0 0 0 0 0 0 0 0 0 0 0 0 0 0 0 0 0 0 0 0 0 0 0 0 0 0 0 0 0 0 0 0 0 0 0 0 0 0 0 0 0 0 0 0 0 0 0 0 0 0 0 0 0 0 0 0 0 0 0 0 0 0 0 0 0 0 0 0 0 0 0 0 0 0 0 0 0 0 0 0 0 0 0 0 0 0 0 0 0 0 0 0 0 0 0 0 0 0 0 0 0 0 0 0 0 0 0 0 0 0 0 0 0 0 0 0 0 0 0 0 0 0 0 0 0 0 0 0 0 0 0 0 0 0 0 0 0 0 0 0 0 0 0 0 0 0 0 0 0 0 0 0 0 0 0 0 0 0 0 0 0 0 0 0 0 0 0 0 0 0 0 0 0 0 0 0 0 0 0 0 0 0 0 0 0 0 0 0 0 0 0 0 0 0 0 0 0 0 0 0 0 0 0 0 0 0 0 0 0 0 0 0 0 0 0 0 0 0 0 0 0 0 0 0 0 0 0 0 0 0 0 0 0 0 0 0 0 0 0 0 0 0 0 0 0 0 0 0 0 0 0 0 0 0 0 0 0 0 0 0 0 0 0 0 0 0 0 0 0 0 0 0 0 0 0 0 0 0 0 0 0 0 0 0 0 0 0 0 0 0 0 0 0 0 0 0 0 0 0 0 0 0 0 0 0 0 0 0 0 0 0 0 0 0 0 0 0 0 0 0 0 0 0 0 0 0 0 0 0 0 0 0 0 0 0 0 0 0 0 0 0 0 0 0 0 0 0 0 0 0 0 0 0 0 0 0 0 0 0 0 0 0 0 0 0 0 0 0 0 0 0 0 0 0 0 0 0 0 0 0 0 0 0 0 0 0 0 0 0 0 0 0 0 0 0 0 0 -0.0136317 -0.00705707 -2.1684e-19 
0.02 0.02 0.0199999 0.0199999 0.0199999 0.0199999 0.02 0.0200001 0.0200002 0.0200004 0.0200006 0.0200009 0.0200011 0.0200014 0.0200017 0.0200019 0.0200022 0.0200024 0.0200027 0.020003 0.0200034 0.020004 0.0200049 0.0200062 0.0200081 0.0200107 0.0200144 0.0200192 0.0200255 0.0200335 0.0200435 0.0200556 0.02007 0.0200869 0.0201064 0.0201285 0.0201533 0.0201805 0.0202101 0.0202417 0.0202752 0.02031 0.0203458 0.0203821 0.0204183 0.020454 0.0204884 0.0205211 0.0205514 0.0205787 0.0206022 0.0206212 0.0206347 0.0206412 0.0206389 0.0206252 0.0205996 0.0205654 0.0205261 0.0204783 0.02041 0.0203052 0.0201605 0.019927 0.0196175 0.01917 0.0185654 0.0178032 0.0168791 0.0157826 0.0144953 0.0129983 0.011279 0.00932727 0.00713967 0.00471607 0.00205126 -0.000855014 -0.00396108 -0.00719816 -0.0104904 -0.0141221 -0.0179677 -0.0239478 -0.0329577 0 0 0 0 0 0 0 0 0 0 0 0 0 0 0 0 0 0 0 0 0 0 0 0 0 0 0 0 0 0 0 0 0 0 0 0 0 0 0 0 0 0 0 0 0 0 0 0 0 0 0 0 0 0 0 0 0 0 0 0 0 0 0 0 0 0 0 0 0 0 0 0 0 0 0 0 0 0 0 0 0 0 0 0 0 0 0 0 0 0 0 0 0 0 0 0 0 0 0 0 0 0 0 0 0 0 0 0 0 0 0 0 0 0 0 0 0 0 0 0 0 0 0 0 0 0 0 0 0 0 0 0 0 0 0 0 0 0 0 0 0 0 0 0 0 0 0 0 0 0 0 0 0 0 0 0 0 0 0 0 0 0 0 0 0 0 0 0 0 0 0 0 0 0 0 0 0 0 0 0 0 0 0 0 0 0 0 0 0 0 0 0 0 0 0 0 0 0 0 0 0 0 0 0 0 0 0 0 0 0 0 0 0 0 0 0 0 0 0 0 0 0 0 0 0 0 0 0 0 0 0 0 0 0 0 0 0 0 0 0 0 0 0 0 0 0 0 0 0 0 0 0 0 0 0 0 0 0 0 0 0 0 0 0 0 0 0 0 0 0 0 0 0 0 0 0 0 0 0 0 0 0 0 0 0 0 0 0 0 0 0 0 0 0 0 0 0 0 0 0 0 0 0 0 0 0 0 0 0 0 0 0 0 0 0 0 0 0 0 0 0 0 0 0 0 0 0 0 0 0 0 0 0 0 0 0 0 0 0 0 0 0 0 0 0 0 0 0 0 0 0 0 0 0 0 0 0 0 0 0 0 0 0 0 0 0 0 0 0 0 0 0 0 0 0 0 0 0 0 0 0 0 0 0 0 0 0 0 0 0 0 0 0 0 0 0 0 0 0 0 0 0 0 0 0 0 0 0 0 0 0 0 0 0 0 0 0 0 0 0 0 0 0 0 0 0 0 0 0 0 0 0 0 0 -0.0399676 -0.0429663 -0.0442607 -0.044453 -0.044627 -0.0446374 -0.0454225 -0.0532107 0 0 0 0 0 0 0 0 0 0 0 0 0 0 0 0 0 0 0 0 0 0 0 0 0 0 0 0 0 0 0 0 0 0 0 0 0 0 0 0 0 0 0 0 0 0 0 0 0 0 0 0 0 0 0 0 0 0 0 0 0 0 0 0 0 0 0 0 0 0 0 0 0 0 0 0 0 0 0 0 0 0 0 0 0 0 0 -0.0309078 -0.0313171 -0.0283393 -0.0231893 -0.0166504 -0.00910715 -1.0842e-18 
0.02 0.02 0.0199999 0.0199999 0.0199999 0.02 0.02 0.0200002 0.0200003 0.0200005 0.0200007 0.020001 0.0200012 0.0200015 0.0200018 0.020002 0.0200023 0.0200025 0.0200027 0.0200029 0.0200033 0.0200037 0.0200045 0.0200056 0.0200073 0.0200097 0.0200131 0.0200175 0.0200234 0.0200309 0.0200403 0.0200517 0.0200654 0.0200814 0.0200999 0.020121 0.0201445 0.0201703 0.0201984 0.0202284 0.02026 0.0202929 0.0203265 0.0203604 0.020394 0.0204269 0.0204583 0.0204877 0.0205145 0.0205381 0.0205577 0.0205726 0.020582 0.0205852 0.0205815 0.0205706 0.0205533 0.0205323 0.0205094 0.020478 0.0204216 0.020318 0.0201464 0.0198992 0.0195484 0.0190783 0.0184784 0.0177376 0.0168411 0.0157712 0.0145119 0.0130481 0.0113678 0.00946158 0.00732366 0.00494926 0.00233861 -0.000501991 -0.00354685 -0.00674087 -0.0100431 -0.013479 -0.0169108 -0.0211888 -0.0282058 -0.03776 0 0 0 0 0 0 0 0 0 0 0 0 0 0 0 0 0 0 0 0 0 0 0 0 0 0 0 0 0 0 0 0 0 0 0 0 0 0 0 0 0 0 0 0 0 0 0 0 0 0 0 0 0 0 0 0 0 0 0 0 0 0 0 0 0 0 0 0 0 0 0 0 0 0 0 0 0 0 0 0 0 0 0 0 0 0 0 0 0 0 0 0 0 0 0 0 0 0 0 0 0 0 0 0 0 0 0 0 0 0 0 0 0 0 0 0 0 0 0 0 0 0 0 0 0 0 0 0 0 0 0 0 0 0 0 0 0 0 0 0 0 0 0 0 0 0 0 0 0 0 0 0 0 0 0 0 0 0 0 0 0 0 0 0 0 0 0 0 0 0 0 0 0 0 0 0 0 0 0 0 0 0 0 0 0 0 0 0 0 0 0 0 0 0 0 0 0 0 0 0 0 0 0 0 0 0 0 0 0 0 0 0 0 0 0 0 0 0 0 0 0 0 0 0 0 0 0 0 0 0 0 0 0 0 0 0 0 0 0 0 0 0 0 0 0 0 0 0 0 0 0 0 0 0 0 0 0 0 0 0 0 0 0 0 0 0 0 0 0 0 0 0 0 0 0 0 0 0 0 0 0 0 0 0 0 0 0 0 0 0 0 0 0 0 0 0 0 0 0 0 0 0 0 0 0 0 0 0 0 0 0 0 0 0 0 0 0 0 0 0 0 0 0 0 0 0 0 0 0 0 0 0 0 0 0 0 0 0 0 0 0 0 0 0 0 0 0 0 0 0 0 0 0 0 0 0 0 0 0 0 0 0 0 0 0 0 0 0 0 0 0 0 0 0 0 0 0 0 0 0 0 0 0 0 0 0 0 0 0 0 0 0 0 0 0 0 0 0 0 0 0 0 0 0 0 0 0 0 0 0 0 0 0 0 0 0 0 0 0 0 0 0 0 0 0 0 0 0 0 -0.0319055 -0.0348734 -0.036593 -0.0391225 -0.0419622 -0.0429369 -0.0439477 -0.0442861 -0.0445126 -0.044719 -0.0453071 -0.04672 -0.046556 -0.0453545 -0.0448276 -0.0442766 -0.0437531 -0.0429967 -0.0420613 -0.0415983 -0.0417338 -0.0456845 0 0 0 0 0 0 0 0 0 0 0 0 0 0 0 0 0 0 0 0 0 0 0 -0.0392731 -0.0421582 -0.043184 -0.0436064 -0.0437648 -0.0437844 -0.0437243 -0.0436132 -0.0434664 -0.0432933 -0.0431006 -0.042893 -0.0426747 -0.042449 -0.0422188 -0.041987 -0.0417564 -0.04153 -0.0413105 -0.0411006 -0.0409025 -0.0407178 -0.0405477 -0.0403927 -0.0402528 -0.0401277 -0.0400172 -0.0399206 -0.0398374 -0.039767 -0.039709 -0.0396627 -0.0396279 -0.0396038 -0.03959 -0.0395857 -0.03959 -0.0396018 -0.0396199 -0.0396431 -0.0396697 -0.0396981 -0.0397262 -0.0397481 -0.039734 -0.0396194 -0.0394744 -0.039326 -0.0391416 -0.0388966 -0.0385609 -0.0380874 -0.0373678 -0.0362129 -0.0342219 -0.0320853 -0.0287326 -0.0239212 -0.0178096 -0.0101667 -8.67362e-19 
0.02 0.02 0.02 0.02 0.02 0.02 0.0200001 0.0200002 0.0200004 0.0200006 0.0200008 0.0200011 0.0200013 0.0200016 0.0200019 0.0200021 0.0200023 0.0200025 0.0200026 0.0200028 0.020003 0.0200034 0.0200039 0.0200049 0.0200063 0.0200084 0.0200113 0.0200154 0.0200208 0.0200276 0.0200363 0.0200469 0.0200596 0.0200746 0.020092 0.0201117 0.0201337 0.0201579 0.0201842 0.0202122 0.0202417 0.0202722 0.0203033 0.0203345 0.0203652 0.0203949 0.0204229 0.0204487 0.0204716 0.020491 0.0205063 0.0205167 0.0205218 0.0205213 0.0205157 0.0205066 0.0204953 0.0204825 0.0204658 0.0204361 0.0203758 0.0202641 0.020082 0.0198142 0.0194504 0.0189808 0.0183928 0.0176712 0.0167987 0.0157582 0.0145342 0.013113 0.011483 0.00963483 0.00755854 0.0052474 0.0027009 -6.64536e-05 -0.00302803 -0.00615656 -0.0094331 -0.0128747 -0.0163973 -0.0196006 -0.0249405 -0.0307709 -0.0430335 0 0 0 0 0 0 0 0 0 0 0 0 0 0 0 0 0 0 0 0 0 0 0 0 0 0 0 0 0 0 0 0 0 0 0 0 0 0 0 0 0 0 0 0 0 0 0 0 0 0 0 0 0 0 0 0 0 0 0 0 0 0 0 0 0 0 0 0 0 0 0 0 0 0 0 0 0 0 0 0 0 0 0 0 0 0 0 0 0 0 0 0 0 0 0 0 0 0 0 0 0 0 0 0 0 0 0 0 0 0 0 0 0 0 0 0 0 0 0 0 0 0 0 0 0 0 0 0 0 0 0 0 0 0 0 0 0 0 0 0 0 0 0 0 0 0 0 0 0 0 0 0 0 0 0 0 0 0 0 0 0 0 0 0 0 0 0 0 0 0 0 0 0 0 0 0 0 0 0 0 0 0 0 0 0 0 0 0 0 0 0 0 0 0 0 0 0 0 0 0 0 0 0 0 0 0 0 0 0 0 0 0 0 0 0 0 0 0 0 0 0 0 0 0 0 0 0 0 0 0 0 0 0 0 0 0 0 0 0 0 0 0 0 0 0 0 0 0 0 0 0 0 0 0 0 0 0 0 0 0 0 0 0 0 0 0 0 0 0 0 0 0 0 0 0 0 0 0 0 0 0 0 0 0 0 0 0 0 0 0 0 0 0 0 0 0 0 0 0 0 0 0 0 0 0 0 0 0 0 0 0 0 0 0 0 0 0 0 0 0 0 0 0 0 0 0 0 0 0 0 0 0 0 0 0 0 0 0 0 0 0 0 0 0 0 0 0 0 0 0 0 0 0 0 0 0 0 0 0 0 0 0 0 0 0 0 0 0 0 0 0 0 0 0 0 0 0 0 0 0 0 0 0 0 0 0 0 0 0 0 0 0 0 0 0 0 0 0 0 0 0 0 0 0 0 0 0 0 0 0 0 0 0 0 0 0 0 0 0 0 0 0 0 0 0 0 -0.0299773 -0.0310161 -0.0337103 -0.0357233 -0.0373955 -0.0389336 -0.0411601 -0.0424942 -0.0433538 -0.0439016 -0.0442582 -0.0447516 -0.0453312 -0.0460337 -0.0458637 -0.0451652 -0.044605 -0.0440147 -0.0434637 -0.0427945 -0.0421019 -0.0416853 -0.0417458 -0.0425877 -0.0429788 -0.0422801 -0.042133 -0.0422335 -0.0422997 -0.0423529 -0.0423843 -0.0423613 -0.04251 -0.0427209 -0.0429569 -0.0432024 -0.0434433 -0.043611 -0.0436212 -0.0436766 -0.0437467 -0.0438137 -0.0438741 -0.0439308 -0.0439844 -0.0439662 -0.0436904 -0.0429134 -0.0430959 -0.043431 -0.0436622 -0.0437705 -0.0437814 -0.0437221 -0.0436124 -0.0434661 -0.0432925 -0.0430986 -0.0428897 -0.0426701 -0.0424432 -0.0422124 -0.0419804 -0.0417502 -0.0415246 -0.0413064 -0.0410981 -0.0409017 -0.0407188 -0.0405504 -0.0403971 -0.0402588 -0.0401355 -0.0400265 -0.0399315 -0.0398498 -0.0397808 -0.0397241 -0.0396791 -0.0396452 -0.0396221 -0.0396089 -0.039605 -0.0396096 -0.0396215 -0.0396396 -0.0396626 -0.0396889 -0.0397168 -0.0397427 -0.0397561 -0.0397348 -0.0396564 -0.0395423 -0.0394036 -0.0392247 -0.0389842 -0.0386494 -0.038157 -0.0373907 -0.036212 -0.0344593 -0.0321641 -0.0288556 -0.0243378 -0.018505 -0.0107974 -2.38524e-18 
0.02 0.02 0.02 0.02 0.02 0.0200001 0.0200001 0.0200003 0.0200004 0.0200006 0.0200009 0.0200011 0.0200014 0.0200017 0.0200019 0.0200021 0.0200023 0.0200024 0.0200025 0.0200025 0.0200026 0.0200028 0.0200032 0.0200039 0.020005 0.0200067 0.0200093 0.0200128 0.0200175 0.0200237 0.0200315 0.0200411 0.0200528 0.0200665 0.0200825 0.0201006 0.020121 0.0201433 0.0201675 0.0201933 0.0202203 0.0202482 0.0202765 0.0203046 0.020332 0.0203582 0.0203825 0.0204043 0.020423 0.0204379 0.0204485 0.0204542 0.0204546 0.0204499 0.0204417 0.0204319 0.0204223 0.0204117 0.0203941 0.0203581 0.0202869 0.0201625 0.0199699 0.0196979 0.0193364 0.0188749 0.0183007 0.0175991 0.0167537 0.0157482 0.014567 0.0131966 0.0116253 0.00984203 0.00783757 0.00560286 0.00313365 0.000440443 -0.00244952 -0.00550531 -0.00869039 -0.012034 -0.0155302 -0.0192604 -0.0222127 -0.0280346 -0.0346179 -0.0456926 0 0 0 0 0 0 0 0 0 0 0 0 0 0 0 0 0 0 0 0 0 0 0 0 0 0 0 0 0 0 0 0 0 0 0 0 0 0 0 0 0 0 0 0 0 0 0 0 0 0 0 0 0 0 0 0 0 0 0 0 0 0 0 0 0 0 0 0 0 0 0 0 0 0 0 0 0 0 0 0 0 0 0 0 0 0 0 0 0 0 0 0 0 0 0 0 0 0 0 0 0 0 0 0 0 0 0 0 0 0 0 0 0 0 0 0 0 0 0 0 0 0 0 0 0 0 0 0 0 0 0 0 0 0 0 0 0 0 0 0 0 0 0 0 0 0 0 0 0 0 0 0 0 0 0 0 0 0 0 0 0 0 0 0 0 0 0 0 0 0 0 0 0 0 0 0 0 0 0 0 0 0 0 0 0 0 0 0 0 0 0 0 0 0 0 0 0 0 0 0 0 0 0 0 0 0 0 0 0 0 0 0 0 0 0 0 0 0 0 0 0 0 0 0 0 0 0 0 0 0 0 0 0 0 0 0 0 0 0 0 0 0 0 0 0 0 0 0 0 0 0 0 0 0 0 0 0 0 0 0 0 0 0 0 0 0 0 0 0 0 0 0 0 0 0 0 0 0 0 0 0 0 0 0 0 0 0 0 0 0 0 0 0 0 0 0 0 0 0 0 0 0 0 0 0 0 0 0 0 0 0 0 0 0 0 0 0 0 0 0 0 0 0 0 0 0 0 0 0 0 0 0 0 0 0 0 0 0 0 0 0 0 0 0 0 0 0 0 0 0 0 0 0 0 0 0 0 0 0 0 0 0 0 0 0 0 0 0 0 0 0 0 0 0 0 0 0 0 0 0 0 0 0 0 0 0 0 0 0 0 0 0 0 0 0 0 0 0 0 0 0 0 0 0 0 0 0 0 0 0 0 0 0 0 0 0 0 0 0 0 0 0 0 0 -0.0316723 -0.0300934 -0.0325191 -0.0352763 -0.0367757 -0.0380427 -0.039456 -0.0407471 -0.0417754 -0.0426532 -0.0433467 -0.0438859 -0.0444875 -0.0450573 -0.0454521 -0.0453555 -0.0448673 -0.0443738 -0.0438352 -0.0433164 -0.042751 -0.04221 -0.0418946 -0.0419627 -0.042411 -0.0426785 -0.0424704 -0.0423132 -0.0422872 -0.0423075 -0.0423352 -0.0423819 -0.0424526 -0.0426055 -0.0428067 -0.0430334 -0.0432718 -0.0435022 -0.0436816 -0.0437688 -0.0438335 -0.0438959 -0.0439485 -0.0439922 -0.0440269 -0.044028 -0.0439241 -0.0436671 -0.0433299 -0.043368 -0.0435353 -0.043676 -0.0437451 -0.043742 -0.043679 -0.0435695 -0.0434246 -0.0432529 -0.0430611 -0.0428544 -0.0426371 -0.0424128 -0.0421847 -0.0419558 -0.041729 -0.041507 -0.0412926 -0.041088 -0.0408953 -0.0407159 -0.0405509 -0.0404007 -0.0402655 -0.0401449 -0.0400387 -0.0399462 -0.0398669 -0.0398001 -0.0397454 -0.0397021 -0.0396698 -0.0396479 -0.0396356 -0.0396322 -0.0396368 -0.0396485 -0.039666 -0.0396881 -0.039713 -0.0397382 -0.039758 -0.0397609 -0.0397317 -0.0396609 -0.0395555 -0.0394184 -0.0392382 -0.0389937 -0.0386471 -0.0381299 -0.0373402 -0.0361656 -0.0344812 -0.0321682 -0.0289586 -0.0246562 -0.0189829 -0.0112033 1.30104e-18 
0.02 0.02 0.02 0.02 0.02 0.0200001 0.0200002 0.0200003 0.0200005 0.0200007 0.0200009 0.0200012 0.0200015 0.0200017 0.0200019 0.0200021 0.0200022 0.0200023 0.0200023 0.0200022 0.0200022 0.0200022 0.0200023 0.0200027 0.0200035 0.0200048 0.0200068 0.0200097 0.0200138 0.0200191 0.0200259 0.0200345 0.0200449 0.0200572 0.0200716 0.020088 0.0201064 0.0201266 0.0201485 0.0201717 0.020196 0.0202209 0.020246 0.0202708 0.0202946 0.020317 0.0203373 0.0203548 0.020369 0.0203791 0.0203848 0.0203854 0.0203808 0.0203717 0.0203595 0.0203465 0.020334 0.02032 0.0202969 0.0202525 0.0201714 0.0200385 0.0198409 0.0195683 0.0192113 0.0187597 0.0182013 0.0175226 0.0167084 0.0157427 0.0146101 0.0132959 0.0117881 0.0100768 0.00815245 0.00600692 0.00363468 0.00103813 -0.00176756 -0.00474815 -0.00785619 -0.0110491 -0.0143907 -0.0179806 -0.021633 -0.0253254 -0.0301562 -0.0355447 -0.0356177 0 0 0 0 0 0 0 0 0 0 0 0 0 0 0 0 0 0 0 0 0 0 0 0 0 0 0 0 0 0 0 0 0 0 0 0 0 0 0 0 0 0 0 0 0 0 0 0 0 0 0 0 0 0 0 0 0 0 0 0 0 0 0 0 0 0 0 0 0 0 0 0 0 0 0 0 0 0 0 0 0 0 0 0 0 0 0 0 0 0 0 0 0 0 0 0 0 0 0 0 0 0 0 0 0 0 0 0 0 0 0 0 0 0 0 0 0 0 0 0 0 0 0 0 0 0 0 0 0 0 0 0 0 0 0 0 0 0 0 0 0 0 0 0 0 0 0 0 0 0 0 0 0 0 0 0 0 0 0 0 0 0 0 0 0 0 0 0 0 0 0 0 0 0 0 0 0 0 0 0 0 0 0 0 0 0 0 0 0 0 0 0 0 0 0 0 0 0 0 0 0 0 0 0 0 0 0 0 0 0 0 0 0 0 0 0 0 0 0 0 0 0 0 0 0 0 0 0 0 0 0 0 0 0 0 0 0 0 0 0 0 0 0 0 0 0 0 0 0 0 0 0 0 0 0 0 0 0 0 0 0 0 0 0 0 0 0 0 0 0 0 0 0 0 0 0 0 0 0 0 0 0 0 0 0 0 0 0 0 0 0 0 0 0 0 0 0 0 0 0 0 0 0 0 0 0 0 0 0 0 0 0 0 0 0 0 0 0 0 0 0 0 0 0 0 0 0 0 0 0 0 0 0 0 0 0 0 0 0 0 0 0 0 0 0 0 0 0 0 0 0 0 0 0 0 0 0 0 0 0 0 0 0 0 0 0 0 0 0 0 0 0 0 0 0 0 0 0 0 0 0 0 0 0 0 0 0 0 0 0 0 0 0 0 0 0 0 0 0 0 0 0 0 0 0 0 0 0 0 0 0 0 0 0 0 0 0 0 0 0 0 0 -0.033819 -0.0322179 -0.0337346 -0.0351853 -0.0366374 -0.0375239 -0.0383304 -0.0391683 -0.0401037 -0.0410136 -0.0418539 -0.0426235 -0.0433004 -0.0439475 -0.0445051 -0.044811 -0.0447828 -0.0444676 -0.044078 -0.0436389 -0.0431951 -0.0427436 -0.0423384 -0.0421079 -0.0421608 -0.0424585 -0.0427122 -0.0426989 -0.0425869 -0.0425284 -0.0425203 -0.0425435 -0.0425919 -0.0426752 -0.0428124 -0.0429906 -0.0431938 -0.0434088 -0.0436138 -0.0437774 -0.0438769 -0.0439315 -0.0439702 -0.0439999 -0.0440215 -0.0440268 -0.0439855 -0.0438586 -0.043659 -0.0434821 -0.0434827 -0.0435709 -0.0436552 -0.0436932 -0.0436755 -0.0436067 -0.0434959 -0.0433521 -0.0431828 -0.0429943 -0.0427917 -0.042579 -0.0423598 -0.0421373 -0.0419144 -0.0416938 -0.0414783 -0.0412703 -0.0410721 -0.0408854 -0.0407118 -0.0405523 -0.0404072 -0.0402767 -0.0401605 -0.0400583 -0.0399696 -0.0398936 -0.0398299 -0.0397779 -0.0397369 -0.0397065 -0.0396859 -0.0396745 -0.0396715 -0.0396761 -0.0396871 -0.0397036 -0.0397239 -0.0397463 -0.0397669 -0.0397791 -0.0397725 -0.0397364 -0.0396657 -0.0395618 -0.0394232 -0.0392389 -0.0389862 -0.0386242 -0.0380869 -0.0372852 -0.0361175 -0.0344647 -0.0321851 -0.0290801 -0.0249283 -0.0193388 -0.0114827 -1.51788e-18 
0.02 0.02 0.02 0.02 0.0200001 0.0200001 0.0200002 0.0200004 0.0200005 0.0200008 0.020001 0.0200012 0.0200015 0.0200017 0.0200019 0.0200021 0.0200021 0.0200021 0.020002 0.0200018 0.0200016 0.0200014 0.0200013 0.0200014 0.0200017 0.0200026 0.020004 0.0200063 0.0200095 0.0200139 0.0200197 0.020027 0.020036 0.0200468 0.0200594 0.0200738 0.02009 0.0201079 0.0201272 0.0201476 0.0201689 0.0201906 0.0202123 0.0202334 0.0202534 0.0202716 0.0202876 0.0203005 0.0203099 0.0203151 0.0203155 0.0203108 0.0203011 0.0202869 0.0202697 0.0202514 0.0202328 0.0202112 0.0201793 0.0201254 0.0200356 0.0198966 0.0196968 0.0194265 0.0190764 0.0186367 0.0180966 0.0174436 0.0166637 0.0157414 0.0146606 0.0134066 0.011967 0.010332 0.0084942 0.00644728 0.00418522 0.00170573 -0.000986098 -0.00386938 -0.00689872 -0.0100156 -0.0132324 -0.0165976 -0.0202552 -0.0241223 -0.0279236 -0.0338156 -0.0454861 -0.0496847 0 0 0 0 0 0 0 0 0 0 0 0 0 0 0 0 0 0 0 0 0 0 0 0 0 0 0 0 0 0 0 0 0 0 0 0 0 0 0 0 0 0 0 0 0 0 0 0 0 0 0 0 0 0 0 0 0 0 0 0 0 0 0 0 0 0 0 0 0 0 0 0 0 0 0 0 0 0 0 0 0 0 0 0 0 0 0 0 0 0 0 0 0 0 0 0 0 0 0 0 0 0 0 0 0 0 0 0 0 0 0 0 0 0 0 0 0 0 0 0 0 0 0 0 0 0 0 0 0 0 0 0 0 0 0 0 0 0 0 0 0 0 0 0 0 0 0 0 0 0 0 0 0 0 0 0 0 0 0 0 0 0 0 0 0 0 0 0 0 0 0 0 0 0 0 0 0 0 0 0 0 0 0 0 0 0 0 0 0 0 0 0 0 0 0 0 0 0 0 0 0 0 0 0 0 0 0 0 0 0 0 0 0 0 0 0 0 0 0 0 0 0 0 0 0 0 0 0 0 0 0 0 0 0 0 0 0 0 0 0 0 0 0 0 0 0 0 0 0 0 0 0 0 0 0 0 0 0 0 0 0 0 0 0 0 0 0 0 0 0 0 0 0 0 0 0 0 0 0 0 0 0 0 0 0 0 0 0 0 0 0 0 0 0 0 0 0 0 0 0 0 0 0 0 0 0 0 0 0 0 0 0 0 0 0 0 0 0 0 0 0 0 0 0 0 0 0 0 0 0 0 0 0 0 0 0 0 0 0 0 0 0 0 0 0 0 0 0 0 0 0 0 0 0 0 0 0 0 0 0 0 0 0 0 0 0 0 0 0 0 0 0 0 0 0 0 0 0 0 0 0 0 0 0 0 0 0 0 0 0 0 0 0 0 0 0 0 0 0 0 0 0 0 0 0 0 0 0 0 0 0 0 0 0 0 0 0 0 0 0 -0.0361004 -0.0360018 -0.0355652 -0.0363014 -0.0371961 -0.0376461 -0.0380394 -0.0384716 -0.0389316 -0.0395952 -0.0402982 -0.0410575 -0.0418369 -0.0425794 -0.0432523 -0.0437942 -0.0441182 -0.0441673 -0.0440075 -0.0437441 -0.0434277 -0.0430947 -0.0427622 -0.0424705 -0.0423058 -0.0423424 -0.0425532 -0.0427834 -0.0428733 -0.0428538 -0.0428361 -0.0428492 -0.0428837 -0.0429338 -0.0430095 -0.0431225 -0.0432697 -0.0434402 -0.0436205 -0.0437897 -0.0439231 -0.0440041 -0.0440404 -0.0440531 -0.0440545 -0.044046 -0.0440166 -0.043944 -0.043815 -0.0436589 -0.0435432 -0.0435258 -0.043566 -0.0436082 -0.0436187 -0.0435855 -0.0435091 -0.0433956 -0.0432521 -0.0430852 -0.0429007 -0.0427034 -0.0424971 -0.0422853 -0.0420709 -0.0418566 -0.0416452 -0.0414389 -0.0412401 -0.0410509 -0.040873 -0.0407076 -0.0405558 -0.0404178 -0.0402939 -0.0401838 -0.0400871 -0.0400032 -0.0399316 -0.0398718 -0.039823 -0.0397847 -0.0397564 -0.0397372 -0.0397267 -0.0397239 -0.039728 -0.0397381 -0.0397528 -0.0397707 -0.0397891 -0.0398039 -0.0398079 -0.0397926 -0.0397503 -0.0396771 -0.0395717 -0.03943 -0.0392398 -0.0389769 -0.0386 -0.0380475 -0.0372392 -0.0360796 -0.0344547 -0.0322264 -0.0292152 -0.0251667 -0.0196166 -0.0116866 -2.38524e-18 