# vtk DataFile Version 2.0
iteration 486
ASCII

DATASET STRUCTURED_POINTS
DIMENSIONS 621 64 1
ORIGIN 0 0 0
SPACING 0.00161031 0.00161031 0.00161031

POINT_DATA 39744
SCALARS P float 1
LOOKUP_TABLE default
0 0 0 0 0 0 0 0 0 0 0 0 0 0 0 0 0 0 0 0 0 0 0 0 0 0 0 0 0 0 0 0 0 0 0 0 0 0 0 0 0 0 0 0 0 0 0 0 0 0 0 0 0 0 0 0 0 0 0 0 0 0 0 0 0 0 0 0 0 0 0 0 0 0 0 0 0 0 0 0 0 0 0 0 0 0 0 0 0 0 0 0 0 0 0 0 0 0 0 0 0 0 0 0 0 0 0 0 0 0 0 0 0 0 0 0 0 0 0 0 0 0 0 0 0 0 0 0 0 0 0 0 0 0 0 0 0 0 0 0 0 0 0 0 0 0 0 0 0 0 0 0 0 0 0 0 0 0 0 0 0 0 0 0 0 0 0 0 0 0 0 0 0 0 0 0 0 0 0 0 0 0 0 0 0 0 0 0 0 0 0 0 0 0 0 0 0 0 0 0 0 0 0 0 0 0 0 0 0 0 0 0 0 0 0 0 0 0 0 0 0 0 0 0 0 0 0 0 0 0 0 0 0 0 0 0 0 0 0 0 0 0 0 0 0 0 0 0 0 0 0 0 0 0 0 0 0 0 0 0 0 0 0 0 0 0 0 0 0 0 0 0 0 0 0 0 0 0 0 0 0 0 0 0 0 0 0 0 0 0 0 0 0 0 0 0 0 0 0 0 0 0 0 0 0 0 0 0 0 0 0 0 0 0 0 0 0 0 0 0 0 0 0 0 0 0 0 0 0 0 0 0 0 0 0 0 0 0 0 0 0 0 0 0 0 0 0 0 0 0 0 0 0 0 0 0 0 0 0 0 0 0 0 0 0 0 0 0 0 0 0 0 0 0 0 0 0 0 0 0 0 0 0 0 0 0 0 0 0 0 0 0 0 0 0 0 0 0 0 0 0 0 0 0 0 0 0 0 0 0 0 0 0 0 0 0 0 0 0 0 0 0 0 0 0 0 0 0 0 0 0 0 0 0 0 0 0 0 0 0 0 0 0 0 0 0 0 0 0 0 0 0 0 0 0 0 0 0 0 0 0 0 0 0 0 0 0 0 0 0 0 0 0 0 0 0 0 0 0 0 0 0 0 0 0 0 0 0 0 0 0 0 0 0 0 0 0 0 0 0 0 0 0 0 0 0 0 0 0 0 0 0 0 0 0 0 0 0 0 0 0 0 0 0 0 0 0 0 0 0 0 0 0 0 0 0 0 0 0 0 0 0 0 0 0 0 0 0 0 0 0 0 0 0 0 0 0 0 0 0 0 0 0 0 0 0 0 0 0 0 0 0 0 0 0 0 0 0 0 0 0 0 0 0 0 0 0 0 0 0 0 0 0 0 0 0 0 0 0 0 0 0 0 0 0 0 0 0 0 0 0 0 0 0 0 0 0 0 0 0 0 
0.02 0.02 0.02 0.0199999 0.0199999 0.0199998 0.0199998 0.0199997 0.0199996 0.0199996 0.0199995 0.0199994 0.0199992 0.0199991 0.019999 0.0199988 0.0199987 0.0199985 0.0199984 0.0199984 0.0199984 0.0199984 0.0199986 0.0199989 0.0199994 0.0200001 0.020001 0.0200022 0.0200038 0.0200057 0.020008 0.0200107 0.0200139 0.0200176 0.0200219 0.0200267 0.0200321 0.0200382 0.0200448 0.0200521 0.0200601 0.0200687 0.020078 0.020088 0.0200987 0.0201101 0.0201222 0.0201351 0.0201486 0.0201629 0.0201779 0.0201935 0.0202096 0.0202261 0.0202429 0.0202597 0.0202764 0.0202925 0.0203077 0.0203216 0.0203336 0.020343 0.0203493 0.0203516 0.0203491 0.0203408 0.0203259 0.0203033 0.0202719 0.0202307 0.0201787 0.0201151 0.0200391 0.0199502 0.0198481 0.0197328 0.0196046 0.0194638 0.0193114 0.0191481 0.0189717 0.0187864 0.0185977 0.0184006 0.0181933 0.0179629 0.0177118 0.0174317 0.017105 0.0167165 0.0162429 0.0156679 0.0149362 0.0141591 0.0132153 0.012699 0.012481 0.0091599 0 0 0 0 0 0 0 0 0 0 0 0 0 0 0 0 0 0 0 0 0 0 0 0 0 0 0 0 0 0 0 0 0 0 0 0 0 0 0 0 0 0 0 0 0 0 0 0 0 0 0 0 0 0 0 0 0 0 0 0 0 0 0 0 0 0 0 0 0 0 0 0 0 0 0 0 0 0 0 0 0 0 0 0 0 0 0 0 0 0 0 0 0 0 0 0 0 0 0 0 0 0 0 0 0 0 0 0 0 0 0 0 0 0 0 0 0 0 0 0 0 0 0 0 0 0 0 0 0 0 0 0 0 0 0 0 0 0 0 0 0 0 0 0 0 0 0 0 0 0 0 0 0 0 0 0 0 0 0 0 0 0 0 0 0 0 0 0 0 0 0 0 0 0 0 0 0 0 0 0 0 0 0 0 0 0 0 0 0 0 0 0 0 0 0 0 0 0 0 0 0 0 0 0 0 0 0 0 0 0 0 0 0 0 0 0 0 0 0 0 0 0 0 0 0 0 0 0 0 0 0 0 0 0 0 0 0 0 0 0 0 0 0 0 0 0 0 0 0 0 0 0 0 0 0 0 0 0 0 0 0 0 0 0 0 0 0 0 0 0 0 0 0 0 0 0 0 0 0 0 0 0 0 0 0 0 0 0 0 0 0 0 0 0 0 0 0 0 0 0 0 0 0 0 0 0 0 0 0 0 0 0 0 0 0 0 0 0 0 0 0 0 0 0 0 0 0 0 0 0 0 0 0 0 0 0 0 0 0 0 0 0 0 0 0 0 0 0 0 0 0 0 0 0 0 0 0 0 0 0 0 0 0 0 0 0 0 0 0 0 0 0 0 0 0 0 0 0 0 0 0 0 0 0 0 0 0 0 0 0 0 0 0 0 0 0 0 0 0 0 0 0 0 0 0 0 0 0 0 0 0 0 0 0 0 0 0 0 0 0 0 0 0 0 0 0 0 0 0 0 0 0 0 0 0 0 0 0 0 0 0 0 0 0 0 0 0 0 0 0 0 0 0 0 0 0 0 0 0 0 0 0 0 0 0 0 0 0 0 0 0 0 0 0 0 0 0 0 0 0 0 0 0 0 0 0 0 0 0 0 0 0 0 0 0 0 0 0 0 0 0 0 0 0 0 0 0 0 0 0 0 0 0 0 0 0 0 0 0 0 0 0 0 
0.02 0.02 0.02 0.0199999 0.0199999 0.0199998 0.0199998 0.0199997 0.0199997 0.0199996 0.0199995 0.0199994 0.0199993 0.0199991 0.019999 0.0199988 0.0199987 0.0199986 0.0199985 0.0199984 0.0199984 0.0199984 0.0199986 0.0199989 0.0199994 0.0200001 0.020001 0.0200022 0.0200037 0.0200056 0.0200078 0.0200105 0.0200137 0.0200173 0.0200215 0.0200263 0.0200316 0.0200376 0.0200441 0.0200513 0.0200592 0.0200677 0.0200768 0.0200867 0.0200972 0.0201085 0.0201204 0.0201331 0.0201465 0.0201606 0.0201753 0.0201907 0.0202066 0.0202229 0.0202394 0.0202561 0.0202725 0.0202885 0.0203036 0.0203173 0.0203292 0.0203387 0.020345 0.0203474 0.0203451 0.0203373 0.0203228 0.0203007 0.0202701 0.0202297 0.0201788 0.0201164 0.0200418 0.0199544 0.0198538 0.0197402 0.0196135 0.0194744 0.0193235 0.0191616 0.0189894 0.0188077 0.0186169 0.0184167 0.0182055 0.0179794 0.017732 0.0174543 0.0171321 0.0167554 0.0163071 0.0157545 0.0150929 0.0142683 0.0132666 0.0122469 0.0112895 0.00868207 0.00554181 0.00199291 -0.00219522 -0.00669904 0 0 0 0 0 0 0 0 0 0 0 0 0 0 0 0 0 0 0 0 0 0 0 0 0 0 0 0 0 0 0 0 0 0 0 0 0 0 0 0 0 0 0 0 0 0 0 0 0 0 0 0 0 0 0 0 0 0 0 0 0 0 0 0 0 0 0 0 0 0 0 0 0 0 0 0 0 0 0 0 0 0 0 0 0 0 0 0 0 0 0 0 0 0 0 0 0 0 0 0 0 0 0 0 0 0 0 0 0 0 0 0 0 0 0 0 0 0 0 0 0 0 0 0 0 0 0 0 0 0 0 0 0 0 0 0 0 0 0 0 0 0 0 0 0 0 0 0 0 0 0 0 0 0 0 0 0 0 0 0 0 0 0 0 0 0 0 0 0 0 0 0 0 0 0 0 0 0 0 0 0 0 0 0 0 0 0 0 0 0 0 0 0 0 0 0 0 0 0 0 0 0 0 0 0 0 0 0 0 0 0 0 0 0 0 0 0 0 0 0 0 0 0 0 0 0 0 0 0 0 0 0 0 0 0 0 0 0 0 0 0 0 0 0 0 0 0 0 0 0 0 0 0 0 0 0 0 0 0 0 0 0 0 0 0 0 0 0 0 0 0 0 0 0 0 0 0 0 0 0 0 0 0 0 0 0 0 0 0 0 0 0 0 0 0 0 0 0 0 0 0 0 0 0 0 0 0 0 0 0 0 0 0 0 0 0 0 0 0 0 0 0 0 0 0 0 0 0 0 0 0 0 0 0 0 0 0 0 0 0 0 0 0 0 0 0 0 0 0 0 0 0 0 0 0 0 0 0 0 0 0 0 0 0 0 0 0 0 0 0 0 0 0 0 0 0 0 0 0 0 0 0 0 0 0 0 0 0 0 0 0 0 0 0 0 0 0 0 0 0 0 0 0 0 0 0 0 0 0 0 0 0 0 0 0 0 0 0 0 0 0 0 0 0 0 0 0 0 0 0 0 0 0 0 0 0 0 0 0 0 0 0 0 0 0 0 0 0 0 0 0 0 0 0 0 0 0 0 0 0 0 0 0 0 0 0 0 0 0 0 0 0 0 0 0 0 0 0 0 0 0 0 0 0 0 0 0 0 0 0 0 0 0 0 0 0 0 0 0 0 0 0 0 0 0 0 0 0 0 0 0 0 0 0 0 0 0 0 0 
0.02 0.02 0.02 0.0199999 0.0199999 0.0199999 0.0199998 0.0199997 0.0199997 0.0199996 0.0199995 0.0199994 0.0199993 0.0199991 0.019999 0.0199989 0.0199987 0.0199986 0.0199985 0.0199984 0.0199984 0.0199985 0.0199987 0.019999 0.0199994 0.0200001 0.020001 0.0200022 0.0200037 0.0200055 0.0200078 0.0200104 0.0200135 0.0200172 0.0200213 0.020026 0.0200313 0.0200372 0.0200436 0.0200507 0.0200585 0.0200668 0.0200759 0.0200855 0.0200959 0.020107 0.0201187 0.0201312 0.0201443 0.0201581 0.0201726 0.0201876 0.0202032 0.0202191 0.0202354 0.0202516 0.0202677 0.0202833 0.0202981 0.0203115 0.0203231 0.0203323 0.0203385 0.0203408 0.0203384 0.0203306 0.0203163 0.0202945 0.0202642 0.0202245 0.0201743 0.0201128 0.0200393 0.0199531 0.019854 0.0197419 0.0196171 0.01948 0.0193312 0.0191715 0.0190018 0.0188228 0.0186351 0.0184382 0.0182308 0.0180093 0.0177679 0.0174991 0.0171931 0.0168403 0.016436 0.0159451 0.0153316 0.014581 0.0135946 0.0122402 0.0108421 0.00847086 0.00566691 0.00228396 -0.00180146 -0.00649252 -0.0117335 0 0 0 0 0 0 0 0 0 0 0 0 0 0 0 0 0 0 0 0 0 0 0 0 0 0 0 0 0 0 0 0 0 0 0 0 0 0 0 0 0 0 0 0 0 0 0 0 0 0 0 0 0 0 0 0 0 0 0 0 0 0 0 0 0 0 0 0 0 0 0 0 0 0 0 0 0 0 0 0 0 0 0 0 0 0 0 0 0 0 0 0 0 0 0 0 0 0 0 0 0 0 0 0 0 0 0 0 0 0 0 0 0 0 0 0 0 0 0 0 0 0 0 0 0 0 0 0 0 0 0 0 0 0 0 0 0 0 0 0 0 0 0 0 0 0 0 0 0 0 0 0 0 0 0 0 0 0 0 0 0 0 0 0 0 0 0 0 0 0 0 0 0 0 0 0 0 0 0 0 0 0 0 0 0 0 0 0 0 0 0 0 0 0 0 0 0 0 0 0 0 0 0 0 0 0 0 0 0 0 0 0 0 0 0 0 0 0 0 0 0 0 0 0 0 0 0 0 0 0 0 0 0 0 0 0 0 0 0 0 0 0 0 0 0 0 0 0 0 0 0 0 0 0 0 0 0 0 0 0 0 0 0 0 0 0 0 0 0 0 0 0 0 0 0 0 0 0 0 0 0 0 0 0 0 0 0 0 0 0 0 0 0 0 0 0 0 0 0 0 0 0 0 0 0 0 0 0 0 0 0 0 0 0 0 0 0 0 0 0 0 0 0 0 0 0 0 0 0 0 0 0 0 0 0 0 0 0 0 0 0 0 0 0 0 0 0 0 0 0 0 0 0 0 0 0 0 0 0 0 0 0 0 0 0 0 0 0 0 0 0 0 0 0 0 0 0 0 0 0 0 0 0 0 0 0 0 0 0 0 0 0 0 0 0 0 0 0 0 0 0 0 0 0 0 0 0 0 0 0 0 0 0 0 0 0 0 0 0 0 0 0 0 0 0 0 0 0 0 0 0 0 0 0 0 0 0 0 0 0 0 0 0 0 0 0 0 0 0 0 0 0 0 0 0 0 0 0 0 0 0 0 0 0 0 0 0 0 0 0 0 0 0 0 0 0 0 0 0 0 0 0 0 0 0 0 0 0 0 0 0 0 0 0 0 0 0 0 0 0 0 0 0 0 0 0 0 0 0 0 0 0 0 0 0 0 0 1.0842e-19 
0.02 0.02 0.02 0.0199999 0.0199999 0.0199999 0.0199998 0.0199997 0.0199997 0.0199996 0.0199995 0.0199994 0.0199993 0.0199992 0.019999 0.0199989 0.0199987 0.0199986 0.0199985 0.0199985 0.0199984 0.0199985 0.0199987 0.019999 0.0199994 0.0200001 0.020001 0.0200021 0.0200036 0.0200054 0.0200076 0.0200102 0.0200133 0.0200169 0.0200209 0.0200256 0.0200307 0.0200365 0.0200428 0.0200498 0.0200573 0.0200655 0.0200743 0.0200838 0.0200939 0.0201046 0.0201161 0.0201282 0.0201409 0.0201543 0.0201683 0.0201829 0.0201979 0.0202133 0.020229 0.0202447 0.0202602 0.0202753 0.0202894 0.0203023 0.0203134 0.0203221 0.0203279 0.0203299 0.0203273 0.0203194 0.0203051 0.0202836 0.0202537 0.0202146 0.0201653 0.0201049 0.0200327 0.0199483 0.0198512 0.0197414 0.0196193 0.0194851 0.0193397 0.0191838 0.0190182 0.0188438 0.0186612 0.01847 0.0182691 0.0180557 0.0178252 0.0175721 0.0172916 0.0169735 0.016615 0.0161866 0.015619 0.0148846 0.0138369 0.0125764 0.0108124 0.00855307 0.00592353 0.00279966 -0.00102493 -0.00542679 -0.00979934 -0.0118097 0 0 0 0 0 0 0 0 0 0 0 0 0 0 0 0 0 0 0 0 0 0 0 0 0 0 0 0 0 0 0 0 0 0 0 0 0 0 0 0 0 0 0 0 0 0 0 0 0 0 0 0 0 0 0 0 0 0 0 0 0 0 0 0 0 0 0 0 0 0 0 0 0 0 0 0 0 0 0 0 0 0 0 0 0 0 0 0 0 0 0 0 0 0 0 0 0 0 0 0 0 0 0 0 0 0 0 0 0 0 0 0 0 0 0 0 0 0 0 0 0 0 0 0 0 0 0 0 0 0 0 0 0 0 0 0 0 0 0 0 0 0 0 0 0 0 0 0 0 0 0 0 0 0 0 0 0 0 0 0 0 0 0 0 0 0 0 0 0 0 0 0 0 0 0 0 0 0 0 0 0 0 0 0 0 0 0 0 0 0 0 0 0 0 0 0 0 0 0 0 0 0 0 0 0 0 0 0 0 0 0 0 0 0 0 0 0 0 0 0 0 0 0 0 0 0 0 0 0 0 0 0 0 0 0 0 0 0 0 0 0 0 0 0 0 0 0 0 0 0 0 0 0 0 0 0 0 0 0 0 0 0 0 0 0 0 0 0 0 0 0 0 0 0 0 0 0 0 0 0 0 0 0 0 0 0 0 0 0 0 0 0 0 0 0 0 0 0 0 0 0 0 0 0 0 0 0 0 0 0 0 0 0 0 0 0 0 0 0 0 0 0 0 0 0 0 0 0 0 0 0 0 0 0 0 0 0 0 0 0 0 0 0 0 0 0 0 0 0 0 0 0 0 0 0 0 0 0 0 0 0 0 0 0 0 0 0 0 0 0 0 0 0 0 0 0 0 0 0 0 0 0 0 0 0 0 0 0 0 0 0 0 0 0 0 0 0 0 0 0 0 0 0 0 0 0 0 0 0 0 0 0 0 0 0 0 0 0 0 0 0 0 0 0 0 0 0 0 0 0 0 0 0 0 0 0 0 0 0 0 0 0 0 0 0 0 0 0 0 0 0 0 0 0 0 0 0 0 0 0 0 0 0 0 0 0 0 0 0 0 0 0 0 0 0 0 0 0 0 0 0 0 0 0 0 0 0 0 0 0 0 0 0 0 0 0 0 0 0 0 0 0 0 0 0 0 0 0 0 0 0 0 0 0 0 -0.00407082 -3.25261e-19 
0.02 0.02 0.02 0.0199999 0.0199999 0.0199999 0.0199998 0.0199998 0.0199997 0.0199996 0.0199995 0.0199994 0.0199993 0.0199992 0.0199991 0.0199989 0.0199988 0.0199987 0.0199986 0.0199985 0.0199985 0.0199985 0.0199987 0.019999 0.0199994 0.0200001 0.0200009 0.020002 0.0200035 0.0200052 0.0200074 0.0200099 0.0200129 0.0200164 0.0200203 0.0200248 0.0200298 0.0200354 0.0200415 0.0200483 0.0200556 0.0200635 0.020072 0.0200811 0.0200908 0.0201012 0.0201122 0.0201237 0.020136 0.0201488 0.0201621 0.020176 0.0201904 0.0202051 0.02022 0.0202349 0.0202496 0.0202638 0.0202771 0.0202892 0.0202995 0.0203076 0.0203127 0.0203142 0.0203113 0.0203031 0.0202889 0.0202675 0.0202381 0.0201998 0.0201515 0.0200926 0.0200223 0.0199401 0.0198457 0.0197391 0.0196206 0.0194907 0.01935 0.0191993 0.0190396 0.0188717 0.0186961 0.0185131 0.0183216 0.0181198 0.0179053 0.0176746 0.0174248 0.0171485 0.0168269 0.0164381 0.0159089 0.0151673 0.0141751 0.0128072 0.0110361 0.00886863 0.00635822 0.00342396 -3.70613e-05 -0.0040642 -0.00922233 -0.0188081 -0.0156523 0 0 0 0 0 0 0 0 0 0 0 0 0 0 0 0 0 0 0 0 0 0 0 0 0 0 0 0 0 0 0 0 0 0 0 0 0 0 0 0 0 0 0 0 0 0 0 0 0 0 0 0 0 0 0 0 0 0 0 0 0 0 0 0 0 0 0 0 0 0 0 0 0 0 0 0 0 0 0 0 0 0 0 0 0 0 0 0 0 0 0 0 0 0 0 0 0 0 0 0 0 0 0 0 0 0 0 0 0 0 0 0 0 0 0 0 0 0 0 0 0 0 0 0 0 0 0 0 0 0 0 0 0 0 0 0 0 0 0 0 0 0 0 0 0 0 0 0 0 0 0 0 0 0 0 0 0 0 0 0 0 0 0 0 0 0 0 0 0 0 0 0 0 0 0 0 0 0 0 0 0 0 0 0 0 0 0 0 0 0 0 0 0 0 0 0 0 0 0 0 0 0 0 0 0 0 0 0 0 0 0 0 0 0 0 0 0 0 0 0 0 0 0 0 0 0 0 0 0 0 0 0 0 0 0 0 0 0 0 0 0 0 0 0 0 0 0 0 0 0 0 0 0 0 0 0 0 0 0 0 0 0 0 0 0 0 0 0 0 0 0 0 0 0 0 0 0 0 0 0 0 0 0 0 0 0 0 0 0 0 0 0 0 0 0 0 0 0 0 0 0 0 0 0 0 0 0 0 0 0 0 0 0 0 0 0 0 0 0 0 0 0 0 0 0 0 0 0 0 0 0 0 0 0 0 0 0 0 0 0 0 0 0 0 0 0 0 0 0 0 0 0 0 0 0 0 0 0 0 0 0 0 0 0 0 0 0 0 0 0 0 0 0 0 0 0 0 0 0 0 0 0 0 0 0 0 0 0 0 0 0 0 0 0 0 0 0 0 0 0 0 0 0 0 0 0 0 0 0 0 0 0 0 0 0 0 0 0 0 0 0 0 0 0 0 0 0 0 0 0 0 0 0 0 0 0 0 0 0 0 0 0 0 0 0 0 0 0 0 0 0 0 0 0 0 0 0 0 0 0 0 0 0 0 0 0 0 0 0 0 0 0 0 0 0 0 0 0 0 0 0 0 0 0 0 0 0 0 0 0 0 0 0 0 0 0 0 0 0 0 0 0 0 0 0 0 0 0 0 0 0 0 0 -0.0133473 -0.00693715 -2.1684e-19 
0.02 0.02 0.02 0.0199999 0.0199999 0.0199999 0.0199998 0.0199998 0.0199997 0.0199996 0.0199995 0.0199994 0.0199993 0.0199992 0.0199991 0.0199989 0.0199988 0.0199987 0.0199986 0.0199985 0.0199985 0.0199985 0.0199987 0.019999 0.0199994 0.02 0.0200008 0.0200019 0.0200032 0.0200049 0.020007 0.0200094 0.0200123 0.0200156 0.0200194 0.0200237 0.0200286 0.0200339 0.0200398 0.0200462 0.0200532 0.0200607 0.0200689 0.0200775 0.0200868 0.0200966 0.0201069 0.0201179 0.0201294 0.0201414 0.020154 0.0201671 0.0201805 0.0201942 0.0202081 0.020222 0.0202356 0.0202488 0.0202611 0.0202721 0.0202815 0.0202886 0.0202929 0.0202937 0.0202903 0.0202818 0.0202674 0.0202463 0.0202174 0.0201799 0.0201329 0.0200758 0.0200077 0.0199283 0.0198373 0.0197348 0.0196209 0.0194963 0.0193617 0.0192178 0.0190655 0.0189058 0.0187394 0.0185668 0.0183876 0.0182011 0.0180069 0.0178033 0.017587 0.0173488 0.0170643 0.0166975 0.016194 0.0154702 0.0144601 0.0131175 0.0114182 0.0093514 0.00695489 0.00421107 0.00108295 -0.00241671 -0.00602181 -0.0104222 -0.012479 0 0 0 0 0 0 0 0 0 0 0 0 0 0 0 0 0 0 0 0 0 0 0 0 0 0 0 0 0 0 0 0 0 0 0 0 0 0 0 0 0 0 0 0 0 0 0 0 0 0 0 0 0 0 0 0 0 0 0 0 0 0 0 0 0 0 0 0 0 0 0 0 0 0 0 0 0 0 0 0 0 0 0 0 0 0 0 0 0 0 0 0 0 0 0 0 0 0 0 0 0 0 0 0 0 0 0 0 0 0 0 0 0 0 0 0 0 0 0 0 0 0 0 0 0 0 0 0 0 0 0 0 0 0 0 0 0 0 0 0 0 0 0 0 0 0 0 0 0 0 0 0 0 0 0 0 0 0 0 0 0 0 0 0 0 0 0 0 0 0 0 0 0 0 0 0 0 0 0 0 0 0 0 0 0 0 0 0 0 0 0 0 0 0 0 0 0 0 0 0 0 0 0 0 0 0 0 0 0 0 0 0 0 0 0 0 0 0 0 0 0 0 0 0 0 0 0 0 0 0 0 0 0 0 0 0 0 0 0 0 0 0 0 0 0 0 0 0 0 0 0 0 0 0 0 0 0 0 0 0 0 0 0 0 0 0 0 0 0 0 0 0 0 0 0 0 0 0 0 0 0 0 0 0 0 0 0 0 0 0 0 0 0 0 0 0 0 0 0 0 0 0 0 0 0 0 0 0 0 0 0 0 0 0 0 0 0 0 0 0 0 0 0 0 0 0 0 0 0 0 0 0 0 0 0 0 0 0 0 0 0 0 0 0 0 0 0 0 0 0 0 0 0 0 0 0 0 0 0 0 0 0 0 0 0 0 0 0 0 0 0 0 0 0 0 0 0 0 0 0 0 0 0 0 0 0 0 0 0 0 0 0 0 0 0 0 0 0 0 0 0 0 0 0 0 0 0 0 0 0 0 0 0 0 0 0 0 0 0 0 0 0 0 0 0 0 0 0 0 0 0 0 0 0 0 0 0 0 0 0 0 0 0 0 0 0 0 0 0 0 0 0 0 0 0 0 0 0 0 0 0 0 0 0 0 0 0 0 0 0 0 0 0 0 0 0 0 0 0 0 0 0 0 0 0 0 0 0 0 0 0 0 0 0 0 0 0 0 0 0 0 0 0 0 0 0 0 0 0 0 -0.0302749 -0.0288659 -0.0236955 -0.0169276 -0.00922042 2.1684e-19 
0.02 0.02 0.02 0.0199999 0.0199999 0.0199999 0.0199998 0.0199998 0.0199997 0.0199996 0.0199996 0.0199995 0.0199994 0.0199992 0.0199991 0.019999 0.0199988 0.0199987 0.0199986 0.0199985 0.0199985 0.0199985 0.0199987 0.0199989 0.0199993 0.0199999 0.0200006 0.0200016 0.0200029 0.0200045 0.0200065 0.0200088 0.0200115 0.0200147 0.0200183 0.0200224 0.0200269 0.020032 0.0200375 0.0200436 0.0200502 0.0200573 0.0200649 0.020073 0.0200816 0.0200907 0.0201004 0.0201105 0.0201212 0.0201323 0.0201439 0.0201559 0.0201682 0.0201808 0.0201935 0.0202061 0.0202185 0.0202304 0.0202414 0.0202512 0.0202593 0.0202653 0.0202686 0.0202685 0.0202644 0.0202555 0.0202409 0.0202199 0.0201916 0.0201551 0.0201096 0.0200544 0.019989 0.0199129 0.019826 0.0197283 0.01962 0.0195018 0.0193744 0.0192386 0.0190953 0.0189456 0.0187901 0.0186299 0.0184657 0.0182977 0.0181266 0.0179519 0.0177684 0.0175621 0.0173073 0.0169554 0.0164554 0.0157525 0.0147875 0.0135182 0.0119178 0.00997589 0.00772281 0.00520733 0.00242263 -0.000533368 -0.00303524 -0.00522259 -0.00626031 -0.00355671 0 0 0 0 0 0 0 0 0 0 0 0 0 0 0 0 0 0 0 0 0 0 0 0 0 0 0 0 0 0 0 0 0 0 0 0 0 0 0 0 0 0 0 0 0 0 0 0 0 0 0 0 0 0 0 0 0 0 0 0 0 0 0 0 0 0 0 0 0 0 0 0 0 0 0 0 0 0 0 0 0 0 0 0 0 0 0 0 0 0 0 0 0 0 0 0 0 0 0 0 0 0 0 0 0 0 0 0 0 0 0 0 0 0 0 0 0 0 0 0 0 0 0 0 0 0 0 0 0 0 0 0 0 0 0 0 0 0 0 0 0 0 0 0 0 0 0 0 0 0 0 0 0 0 0 0 0 0 0 0 0 0 0 0 0 0 0 0 0 0 0 0 0 0 0 0 0 0 0 0 0 0 0 0 0 0 0 0 0 0 0 0 0 0 0 0 0 0 0 0 0 0 0 0 0 0 0 0 0 0 0 0 0 0 0 0 0 0 0 0 0 0 0 0 0 0 0 0 0 0 0 0 0 0 0 0 0 0 0 0 0 0 0 0 0 0 0 0 0 0 0 0 0 0 0 0 0 0 0 0 0 0 0 0 0 0 0 0 0 0 0 0 0 0 0 0 0 0 0 0 0 0 0 0 0 0 0 0 0 0 0 0 0 0 0 0 0 0 0 0 0 0 0 0 0 0 0 0 0 0 0 0 0 0 0 0 0 0 0 0 0 0 0 0 0 0 0 0 0 0 0 0 0 0 0 0 0 0 0 0 0 0 0 0 0 0 0 0 0 0 0 0 0 0 0 0 0 0 0 0 0 0 0 0 0 0 0 0 0 0 0 0 0 0 0 0 -0.0347999 -0.0381193 -0.0437275 -0.0468817 -0.0481396 -0.0486306 -0.0489931 -0.0490859 -0.0491296 -0.0491562 -0.0490957 -0.0489353 -0.0487633 -0.0491937 -0.0561664 0 0 0 0 0 0 0 0 0 0 0 0 0 0 0 0 0 0 0 0 0 0 -0.0396853 -0.0430782 -0.0447285 -0.045154 -0.0448292 -0.0449212 -0.04491 -0.0447845 -0.0445799 -0.0443301 -0.0440511 -0.0437611 -0.0434483 -0.0431248 -0.0427984 -0.0424745 -0.0421575 -0.0418503 -0.0415563 -0.0412789 -0.0410214 -0.0407871 -0.0405797 -0.0404024 -0.0402584 -0.0401503 -0.0400798 -0.0400477 -0.0400535 -0.0400956 -0.0401711 -0.0402762 -0.0404062 -0.0405559 -0.0407198 -0.0408926 -0.0410699 -0.0412488 -0.0414282 -0.0416091 -0.0417943 -0.0419884 -0.0421964 -0.0424232 -0.0426729 -0.0429485 -0.0432522 -0.043583 -0.0439369 -0.0443077 -0.0446861 -0.0450584 -0.0454061 -0.0457079 -0.0459441 -0.0461019 -0.0461799 -0.046188 -0.0461408 -0.046055 -0.0459456 -0.0458265 -0.045709 -0.045601 -0.0455061 -0.0454231 -0.0453499 -0.0452814 -0.045213 -0.0451402 -0.0450598 -0.0449705 -0.0448721 -0.0447651 -0.0446502 -0.044528 -0.0443988 -0.0442633 -0.0441215 -0.0439738 -0.04382 -0.0436601 -0.0434937 -0.0433206 -0.0431403 -0.042952 -0.0427547 -0.0425465 -0.0423224 -0.0420647 -0.0416779 -0.0409821 -0.0402579 -0.0393866 -0.0381864 -0.0364026 -0.0334692 -0.0298129 -0.0246993 -0.0182972 -0.0104066 -2.81893e-18 
0.02 0.02 0.02 0.0199999 0.0199999 0.0199999 0.0199998 0.0199998 0.0199997 0.0199997 0.0199996 0.0199995 0.0199994 0.0199993 0.0199991 0.019999 0.0199989 0.0199987 0.0199986 0.0199986 0.0199985 0.0199985 0.0199986 0.0199988 0.0199992 0.0199997 0.0200004 0.0200013 0.0200025 0.020004 0.0200058 0.020008 0.0200106 0.0200135 0.0200169 0.0200207 0.0200249 0.0200296 0.0200348 0.0200404 0.0200465 0.020053 0.02006 0.0200675 0.0200754 0.0200837 0.0200925 0.0201018 0.0201114 0.0201215 0.0201319 0.0201427 0.0201537 0.0201649 0.0201762 0.0201874 0.0201983 0.0202086 0.0202182 0.0202265 0.0202332 0.0202379 0.02024 0.0202389 0.0202339 0.0202244 0.0202096 0.0201887 0.0201609 0.0201255 0.0200817 0.0200288 0.0199664 0.0198941 0.0198119 0.0197197 0.0196179 0.0195071 0.019388 0.0192615 0.0191286 0.0189902 0.0188474 0.0187015 0.0185541 0.0184066 0.01826 0.0181132 0.0179592 0.0177809 0.0175487 0.0172234 0.0167511 0.0160818 0.0151722 0.0139889 0.0125082 0.0107203 0.0086479 0.00636442 0.00389728 0.00135906 -0.000751221 -0.00179766 -0.00386291 -0.0057611 0 0 0 0 0 0 0 0 0 0 0 0 0 0 0 0 0 0 0 0 0 0 0 0 0 0 0 0 0 0 0 0 0 0 0 0 0 0 0 0 0 0 0 0 0 0 0 0 0 0 0 0 0 0 0 0 0 0 0 0 0 0 0 0 0 0 0 0 0 0 0 0 0 0 0 0 0 0 0 0 0 0 0 0 0 0 0 0 0 0 0 0 0 0 0 0 0 0 0 0 0 0 0 0 0 0 0 0 0 0 0 0 0 0 0 0 0 0 0 0 0 0 0 0 0 0 0 0 0 0 0 0 0 0 0 0 0 0 0 0 0 0 0 0 0 0 0 0 0 0 0 0 0 0 0 0 0 0 0 0 0 0 0 0 0 0 0 0 0 0 0 0 0 0 0 0 0 0 0 0 0 0 0 0 0 0 0 0 0 0 0 0 0 0 0 0 0 0 0 0 0 0 0 0 0 0 0 0 0 0 0 0 0 0 0 0 0 0 0 0 0 0 0 0 0 0 0 0 0 0 0 0 0 0 0 0 0 0 0 0 0 0 0 0 0 0 0 0 0 0 0 0 0 0 0 0 0 0 0 0 0 0 0 0 0 0 0 0 0 0 0 0 0 0 0 0 0 0 0 0 0 0 0 0 0 0 0 0 0 0 0 0 0 0 0 0 0 0 0 0 0 0 0 0 0 0 0 0 0 0 0 0 0 0 0 0 0 0 0 0 0 0 0 0 0 0 0 0 0 0 0 0 0 0 0 0 0 0 0 0 0 0 0 0 0 0 0 0 0 0 0 0 0 0 0 0 0 0 0 0 0 0 0 0 0 0 0 0 0 0 0 0 0 0 0 -0.0308227 -0.0351386 -0.0391065 -0.0432248 -0.0462265 -0.0478269 -0.0483548 -0.0488439 -0.0490351 -0.0490618 -0.0490644 -0.0489973 -0.0488589 -0.0486953 -0.0489403 -0.0501197 -0.0505054 -0.0495537 -0.0489708 -0.0486281 -0.0483717 -0.0481274 -0.0478772 -0.0475908 -0.0472785 -0.046959 -0.0466418 -0.0463414 -0.046068 -0.0458251 -0.0456155 -0.0454398 -0.045297 -0.0451842 -0.045097 -0.0450015 -0.0448827 -0.0445201 -0.0438468 -0.0441609 -0.044772 -0.0450966 -0.0448499 -0.0449036 -0.0448916 -0.044778 -0.0445719 -0.0443338 -0.0440478 -0.0437612 -0.0434519 -0.0431302 -0.0428064 -0.0424843 -0.0421699 -0.0418647 -0.0415727 -0.0412966 -0.0410401 -0.0408064 -0.0405989 -0.0404213 -0.0402766 -0.0401673 -0.0400953 -0.0400613 -0.0400648 -0.0401042 -0.0401767 -0.0402787 -0.0404056 -0.0405521 -0.0407128 -0.0408826 -0.0410573 -0.0412339 -0.0414116 -0.0415913 -0.0417758 -0.0419695 -0.0421773 -0.0424041 -0.0426539 -0.04293 -0.043234 -0.0435647 -0.043918 -0.0442865 -0.0446609 -0.0450287 -0.0453733 -0.045673 -0.0459089 -0.0460676 -0.0461497 -0.0461612 -0.0461189 -0.0460373 -0.0459328 -0.0458178 -0.0457041 -0.0455983 -0.0455051 -0.0454236 -0.0453507 -0.0452832 -0.045215 -0.0451433 -0.045064 -0.0449761 -0.0448789 -0.044773 -0.0446589 -0.0445373 -0.0444086 -0.0442732 -0.0441316 -0.0439838 -0.0438299 -0.0436699 -0.0435036 -0.0433309 -0.0431512 -0.042964 -0.0427682 -0.0425612 -0.0423346 -0.042057 -0.0416644 -0.0410957 -0.0404106 -0.0395251 -0.0382688 -0.0364154 -0.0336834 -0.0300486 -0.0252256 -0.0191034 -0.0111158 -2.60209e-18 
0.02 0.02 0.02 0.0199999 0.0199999 0.0199999 0.0199999 0.0199998 0.0199997 0.0199997 0.0199996 0.0199995 0.0199994 0.0199993 0.0199992 0.019999 0.0199989 0.0199988 0.0199987 0.0199986 0.0199985 0.0199985 0.0199986 0.0199988 0.0199991 0.0199995 0.0200001 0.020001 0.0200021 0.0200034 0.0200051 0.0200071 0.0200094 0.0200121 0.0200152 0.0200187 0.0200226 0.0200269 0.0200316 0.0200367 0.0200422 0.0200481 0.0200544 0.0200611 0.0200682 0.0200756 0.0200834 0.0200916 0.0201001 0.0201089 0.0201181 0.0201275 0.020137 0.0201467 0.0201564 0.0201659 0.0201751 0.0201838 0.0201916 0.0201983 0.0202034 0.0202066 0.0202073 0.020205 0.020199 0.0201889 0.0201737 0.0201529 0.0201258 0.0200915 0.0200496 0.0199993 0.0199403 0.0198723 0.0197953 0.0197093 0.0196147 0.0195122 0.0194024 0.0192864 0.019165 0.0190393 0.0189106 0.0187806 0.0186513 0.0185249 0.0184024 0.0182815 0.0181535 0.018 0.0177919 0.01749 0.0170526 0.016436 0.0156013 0.0145186 0.0131699 0.0115498 0.00967483 0.00760531 0.00542735 0.00319638 0.00129314 0.000370294 6.89077e-05 -0.000817864 0.00333382 0 0 0 0 0 0 0 0 0 0 0 0 0 0 0 0 0 0 0 0 0 0 0 0 0 0 0 0 0 0 0 0 0 0 0 0 0 0 0 0 0 0 0 0 0 0 0 0 0 0 0 0 0 0 0 0 0 0 0 0 0 0 0 0 0 0 0 0 0 0 0 0 0 0 0 0 0 0 0 0 0 0 0 0 0 0 0 0 0 0 0 0 0 0 0 0 0 0 0 0 0 0 0 0 0 0 0 0 0 0 0 0 0 0 0 0 0 0 0 0 0 0 0 0 0 0 0 0 0 0 0 0 0 0 0 0 0 0 0 0 0 0 0 0 0 0 0 0 0 0 0 0 0 0 0 0 0 0 0 0 0 0 0 0 0 0 0 0 0 0 0 0 0 0 0 0 0 0 0 0 0 0 0 0 0 0 0 0 0 0 0 0 0 0 0 0 0 0 -0.0529459 -0.0614274 -0.06292 -0.0665929 -0.0691589 -0.0701541 -0.0699959 -0.0691566 -0.0694267 -0.0714481 -0.0780658 0 0 0 0 0 0 0 0 0 0 0 0 0 0 0 0 0 0 0 0 0 0 0 0 0 0 0 0 0 0 0 0 0 0 0 0 0 0 0 0 0 0 0 0 0 0 0 0 0 0 0 0 0 0 0 0 0 0 0 0 0 0 0 0 0 0 0 0 0 0 0 0 0 0 0 0 0 0 0 0 0 0 0 0 0 0 0 0 0 0 0 0 0 0 0 0 0 0 0 0 0 0 0 0 0 0 0 0 0 0 0 0 0 0 0 0 0 0 0 0 0 0 0 0 0 0 0 0 0 0 0 0 0 0 0 0 0 0 0 0 0 0 0 0 0 0 0 0 0 0 0 0 0 0 0 0 0 0 0 0 0 0 0 0 -0.0290656 -0.0307033 -0.0359276 -0.0394195 -0.0428825 -0.0454494 -0.0471961 -0.0480106 -0.0486444 -0.048946 -0.0490156 -0.0490152 -0.048956 -0.0488345 -0.0486938 -0.0488194 -0.0493718 -0.0497144 -0.0494678 -0.0490756 -0.0487241 -0.0484475 -0.0481847 -0.0479285 -0.0476606 -0.0473714 -0.0470777 -0.0467863 -0.0465045 -0.0462434 -0.0460065 -0.0457967 -0.0456161 -0.0454644 -0.0453402 -0.0452396 -0.0451166 -0.0449355 -0.0446275 -0.0443692 -0.0444664 -0.0447322 -0.0448181 -0.0448157 -0.0448647 -0.0448392 -0.0447333 -0.0445256 -0.0442947 -0.044016 -0.0437332 -0.0434307 -0.043114 -0.0427973 -0.0424812 -0.0421736 -0.0418739 -0.0415872 -0.0413151 -0.0410616 -0.0408297 -0.0406232 -0.0404457 -0.0403003 -0.0401899 -0.0401163 -0.0400803 -0.0400816 -0.0401185 -0.0401885 -0.0402878 -0.0404122 -0.0405563 -0.0407149 -0.0408828 -0.0410558 -0.041231 -0.0414075 -0.0415863 -0.0417701 -0.0419635 -0.0421715 -0.0423991 -0.0426504 -0.0429283 -0.0432343 -0.043567 -0.0439211 -0.0442893 -0.0446623 -0.0450267 -0.0453653 -0.0456578 -0.0458877 -0.0460417 -0.0461196 -0.0461278 -0.0460826 -0.0459992 -0.0458956 -0.0457822 -0.0456726 -0.0455711 -0.0454815 -0.0454045 -0.0453333 -0.0452683 -0.0452007 -0.0451302 -0.0450517 -0.0449646 -0.0448681 -0.0447626 -0.0446487 -0.044527 -0.044398 -0.0442622 -0.04412 -0.0439715 -0.0438168 -0.043656 -0.0434889 -0.0433154 -0.0431351 -0.0429473 -0.0427506 -0.0425406 -0.0423031 -0.0420067 -0.0416089 -0.0410765 -0.0403982 -0.0394896 -0.0381988 -0.0363366 -0.0337085 -0.0301958 -0.0256027 -0.0196478 -0.0115715 -4.33681e-19 
0.02 0.02 0.02 0.02 0.0199999 0.0199999 0.0199999 0.0199998 0.0199998 0.0199997 0.0199996 0.0199995 0.0199994 0.0199993 0.0199992 0.0199991 0.0199989 0.0199988 0.0199987 0.0199986 0.0199985 0.0199985 0.0199985 0.0199986 0.0199989 0.0199993 0.0199998 0.0200006 0.0200015 0.0200027 0.0200042 0.020006 0.0200081 0.0200105 0.0200133 0.0200164 0.0200199 0.0200237 0.0200279 0.0200324 0.0200373 0.0200425 0.020048 0.0200539 0.02006 0.0200664 0.0200731 0.0200801 0.0200874 0.0200948 0.0201025 0.0201103 0.0201183 0.0201263 0.0201342 0.0201419 0.0201493 0.020156 0.020162 0.0201668 0.0201702 0.0201717 0.0201709 0.0201672 0.0201602 0.0201493 0.0201339 0.0201132 0.0200867 0.0200538 0.0200139 0.0199666 0.0199114 0.0198481 0.0197769 0.0196977 0.0196112 0.0195177 0.0194182 0.0193135 0.0192047 0.0190928 0.0189795 0.0188664 0.0187559 0.0186505 0.0185509 0.0184538 0.0183494 0.0182196 0.0180372 0.0177683 0.0173751 0.0168197 0.0160679 0.0150931 0.0138802 0.0124257 0.0107371 0.00885298 0.00688043 0.00493811 0.00329216 0.0026138 0.00284763 0.00158715 0.00137983 0.00306825 0 0 0 0 0 0 0 0 0 0 0 0 0 0 0 0 0 0 0 0 0 0 0 0 0 0 0 0 0 0 0 0 0 0 0 0 0 0 0 0 0 0 0 0 0 0 0 0 0 0 0 0 0 0 0 0 0 0 0 0 0 0 0 0 0 0 0 0 0 0 0 0 0 0 0 0 0 0 0 0 0 0 0 0 0 0 0 0 0 0 0 0 0 0 0 0 0 0 0 0 0 0 0 0 0 0 0 0 0 0 0 0 0 0 0 0 0 0 0 0 0 0 0 0 0 0 0 0 0 0 0 0 0 0 0 0 0 0 0 0 0 0 0 0 0 0 0 0 0 0 0 0 0 0 0 0 0 0 0 0 0 0 0 0 0 0 0 0 0 0 0 0 0 0 0 0 0 0 0 0 0 0 0 0 0 0 0 0 0 0 0 0 0 0 0 0 -0.061348 -0.0585636 -0.0614687 -0.0629627 -0.0665535 -0.068678 -0.0695746 -0.0693358 -0.0688581 -0.0692854 -0.0706756 -0.0718774 -0.0709621 -0.0687251 -0.0677607 -0.0696364 -0.0759247 0 0 0 0 0 0 0 0 0 0 0 0 0 0 0 0 0 0 0 0 0 0 0 0 0 0 0 0 0 0 0 0 0 0 0 0 0 0 0 0 0 0 0 0 0 0 0 0 0 0 0 0 0 0 0 0 0 0 0 0 0 0 0 0 0 0 0 0 0 0 0 0 0 0 0 0 0 0 0 0 0 0 0 0 0 0 0 0 0 0 0 0 0 0 0 0 0 0 0 0 0 0 0 0 0 0 0 0 0 0 0 0 0 0 0 0 0 0 0 0 0 0 0 0 0 0 0 0 0 0 0 0 0 0 0 0 0 0 0 0 0 0 0 0 0 0 0 0 0 0 0 0 0 0 0 0 0 0 0 -0.033466 -0.032971 -0.0374799 -0.0401173 -0.042913 -0.0448657 -0.0465508 -0.0475692 -0.0483681 -0.0487626 -0.0489084 -0.0489454 -0.0489152 -0.0488113 -0.0486776 -0.0486919 -0.0489889 -0.0493188 -0.0493828 -0.0491952 -0.0489211 -0.0486396 -0.0483705 -0.0481014 -0.0478262 -0.0475408 -0.0472493 -0.0469587 -0.0466751 -0.046407 -0.0461597 -0.0459365 -0.0457412 -0.0455742 -0.0454347 -0.045318 -0.0451949 -0.045009 -0.0447367 -0.0445588 -0.0445758 -0.0446064 -0.0446721 -0.0447591 -0.0448026 -0.0447614 -0.0446514 -0.0444519 -0.0442267 -0.0439643 -0.0436865 -0.0433922 -0.0430837 -0.042777 -0.0424704 -0.0421725 -0.0418814 -0.0416025 -0.041337 -0.0410885 -0.0408602 -0.0406558 -0.0404791 -0.0403335 -0.040222 -0.0401465 -0.040108 -0.0401063 -0.04014 -0.0402067 -0.0403028 -0.0404239 -0.0405651 -0.040721 -0.0408865 -0.0410575 -0.0412311 -0.0414064 -0.0415841 -0.0417674 -0.0419607 -0.0421694 -0.0423987 -0.0426529 -0.0429349 -0.0432457 -0.0435827 -0.0439403 -0.0443098 -0.0446803 -0.0450385 -0.0453678 -0.0456489 -0.0458665 -0.0460075 -0.0460751 -0.0460737 -0.0460229 -0.0459351 -0.0458319 -0.0457213 -0.0456165 -0.045523 -0.0454391 -0.0453693 -0.0453023 -0.0452412 -0.0451761 -0.0451075 -0.0450303 -0.0449441 -0.0448482 -0.044743 -0.0446291 -0.0445071 -0.0443776 -0.0442411 -0.0440979 -0.0439483 -0.0437925 -0.0436305 -0.0434623 -0.0432877 -0.0431064 -0.0429174 -0.0427186 -0.042503 -0.0422547 -0.041946 -0.0415451 -0.0410217 -0.0403383 -0.0394094 -0.0381014 -0.0362553 -0.033713 -0.0303337 -0.0259097 -0.0200462 -0.0118834 2.1684e-19 