# vtk DataFile Version 2.0
iteration 1134
ASCII

DATASET STRUCTURED_POINTS
DIMENSIONS 621 64 1
ORIGIN 0 0 0
SPACING 0.00161031 0.00161031 0.00161031

POINT_DATA 39744
SCALARS P float 1
LOOKUP_TABLE default
0 0 0 0 0 0 0 0 0 0 0 0 0 0 0 0 0 0 0 0 0 0 0 0 0 0 0 0 0 0 0 0 0 0 0 0 0 0 0 0 0 0 0 0 0 0 0 0 0 0 0 0 0 0 0 0 0 0 0 0 0 0 0 0 0 0 0 0 0 0 0 0 0 0 0 0 0 0 0 0 0 0 0 0 0 0 0 0 0 0 0 0 0 0 0 0 0 0 0 0 0 0 0 0 0 0 0 0 0 0 0 0 0 0 0 0 0 0 0 0 0 0 0 0 0 0 0 0 0 0 0 0 0 0 0 0 0 0 0 0 0 0 0 0 0 0 0 0 0 0 0 0 0 0 0 0 0 0 0 0 0 0 0 0 0 0 0 0 0 0 0 0 0 0 0 0 0 0 0 0 0 0 0 0 0 0 0 0 0 0 0 0 0 0 0 0 0 0 0 0 0 0 0 0 0 0 0 0 0 0 0 0 0 0 0 0 0 0 0 0 0 0 0 0 0 0 0 0 0 0 0 0 0 0 0 0 0 0 0 0 0 0 0 0 0 0 0 0 0 0 0 0 0 0 0 0 0 0 0 0 0 0 0 0 0 0 0 0 0 0 0 0 0 0 0 0 0 0 0 0 0 0 0 0 0 0 0 0 0 0 0 0 0 0 0 0 0 0 0 0 0 0 0 0 0 0 0 0 0 0 0 0 0 0 0 0 0 0 0 0 0 0 0 0 0 0 0 0 0 0 0 0 0 0 0 0 0 0 0 0 0 0 0 0 0 0 0 0 0 0 0 0 0 0 0 0 0 0 0 0 0 0 0 0 0 0 0 0 0 0 0 0 0 0 0 0 0 0 0 0 0 0 0 0 0 0 0 0 0 0 0 0 0 0 0 0 0 0 0 0 0 0 0 0 0 0 0 0 0 0 0 0 0 0 0 0 0 0 0 0 0 0 0 0 0 0 0 0 0 0 0 0 0 0 0 0 0 0 0 0 0 0 0 0 0 0 0 0 0 0 0 0 0 0 0 0 0 0 0 0 0 0 0 0 0 0 0 0 0 0 0 0 0 0 0 0 0 0 0 0 0 0 0 0 0 0 0 0 0 0 0 0 0 0 0 0 0 0 0 0 0 0 0 0 0 0 0 0 0 0 0 0 0 0 0 0 0 0 0 0 0 0 0 0 0 0 0 0 0 0 0 0 0 0 0 0 0 0 0 0 0 0 0 0 0 0 0 0 0 0 0 0 0 0 0 0 0 0 0 0 0 0 0 0 0 0 0 0 0 0 0 0 0 0 0 0 0 0 0 0 0 0 0 0 0 0 0 0 0 0 0 0 0 0 0 0 0 0 0 0 0 0 0 0 0 0 0 0 0 0 0 0 0 0 0 0 0 0 0 0 0 
0.02 0.02 0.02 0.02 0.02 0.02 0.02 0.02 0.02 0.02 0.02 0.02 0.02 0.02 0.02 0.02 0.02 0.02 0.02 0.02 0.02 0.02 0.02 0.02 0.02 0.02 0.02 0.02 0.02 0.02 0.02 0.02 0.02 0.02 0.02 0.02 0.02 0.02 0.02 0.02 0.02 0.02 0.02 0.02 0.02 0.02 0.02 0.02 0.02 0.02 0.02 0.02 0.02 0.02 0.02 0.0199999 0.0199999 0.0199999 0.0199999 0.0199999 0.0199999 0.0199999 0.0199999 0.0199999 0.0199998 0.0199998 0.0199998 0.0199998 0.0199997 0.0199997 0.0199997 0.0199996 0.0199996 0.0199996 0.0199995 0.0199995 0.0199994 0.0199993 0.0199993 0.0199992 0.0199991 0.019999 0.0199989 0.0199988 0.0199987 0.0199986 0.0199984 0.0199983 0.0199981 0.0199979 0.0199977 0.0199975 0.0199973 0.019997 0.0199967 0.0199964 0.0199961 0.0199958 0.0199954 0.019995 0.0199946 0.0199941 0.0199936 0.019993 0.0199924 0.0199918 0.0199911 0.0199904 0.0199896 0.0199888 0.0199879 0.0199869 0.0199859 0.0199849 0.0199837 0.0199825 0.0199813 0.01998 0.0199786 0.0199772 0.0199758 0.0199743 0.0199727 0.0199712 0.0199696 0.019968 0.0199665 0.0199649 0.0199635 0.0199621 0.0199608 0.0199596 0.0199586 0.0199579 0.0199573 0.0199571 0.0199572 0.0199577 0.0199587 0.0199601 0.0199621 0.0199647 0.019968 0.019972 0.0199769 0.0199826 0.0199892 0.0199968 0.0200055 0.0200152 0.020026 0.020038 0.0200513 0.0200657 0.0200815 0.0200985 0.0201169 0.0201365 0.0201575 0.0201796 0.020203 0.0202275 0.020253 0.0202796 0.020307 0.0203352 0.020364 0.0203935 0.0204235 0.0204539 0.0204845 0.0205153 0.0205461 0.0205769 0.0206075 0.0206378 0.0206678 0.0206973 0.0207263 0.0207546 0.0207823 0.0208091 0.0208351 0.0208602 0.0208843 0.0209074 0.0209295 0.0209505 0.0209705 0.0209894 0.0210071 0.0210238 0.0210394 0.0210539 0.0210672 0.0210795 0.0210907 0.0211009 0.0211099 0.0211177 0.0211245 0.02113 0.0211344 0.0211374 0.0211391 0.0211393 0.021138 0.021135 0.0211302 0.0211235 0.0211146 0.0211034 0.0210898 0.0210735 0.0210543 0.0210321 0.0210066 0.0209777 0.0209451 0.0209087 0.0208683 0.0208237 0.0207747 0.0207212 0.0206629 0.0205996 0.020531 0.0204567 0.0203762 0.0202891 0.0201948 0.0200922 0.0199808 0.0198597 0.0197273 0.0195819 0.0194268 0.0192668 0.0191078 0.0189391 0.0187599 0.0185697 0.0183676 0.0181525 0.0179234 0.0176789 0.0174177 0.0171388 0.0168409 0.0165234 0.0161887 0.015835 0.0154611 0.0151084 0.0148425 0.015258 0.0175789 0 0 0 0 0 0 0 0 0 0 0 0 0 0 0 0 0 0 0 0 0 0 0 0 0 0 0 0 0 0 0 0 0 0 0 0 0 0 0 0 0 0 0 0 0 0 0 0 0 0 0 0 0 0 0 0 0 0 0 0 0 0 0 0 0 0 0 0 0 0 0 0 0 0 0 0 0 0 0 0 0 0 0 0 0 0 0 0 0 0 0 0 0 0 0 0 0 0 0 0 0 0 0 0 0 0 0 0 0 0 0 0 0 0 0 0 0 0 0 0 0 0 0 0 0 0 0 0 0 0 0 0 0 0 0 0 0 0 0 0 0 0 0 0 0 0 0 0 0 0 0 0 0 0 0 0 0 0 0 0 0 0 0 0 0 0 0 0 0 0 0 0 0 0 0 0 0 0 0 0 0 0 0 0 0 0 0 0 0 0 0 0 0 0 0 0 0 0 0 0 0 0 0 0 0 0 0 0 0 0 0 0 0 0 0 0 0 0 0 0 0 0 0 0 0 0 0 0 0 0 0 0 0 0 0 0 0 0 0 0 0 0 0 0 0 0 0 0 0 0 0 0 0 0 0 0 0 0 0 0 0 0 0 0 0 0 0 0 0 0 0 0 0 0 0 0 0 0 0 0 0 0 0 0 0 0 0 0 0 0 0 0 0 0 0 0 0 0 0 0 0 0 0 0 0 0 0 0 0 0 0 0 0 0 0 0 0 0 0 0 0 0 0 0 0 0 0 0 0 0 0 0 0 0 0 0 0 0 0 0 0 0 0 0 0 0 0 0 0 0 0 0 0 0 0 0 0 0 0 0 0 0 0 0 
0.02 0.02 0.02 0.02 0.02 0.02 0.02 0.02 0.02 0.02 0.02 0.02 0.02 0.02 0.02 0.02 0.02 0.02 0.02 0.02 0.02 0.02 0.02 0.02 0.02 0.02 0.02 0.02 0.02 0.02 0.02 0.02 0.02 0.02 0.02 0.02 0.02 0.02 0.02 0.02 0.02 0.02 0.02 0.02 0.02 0.02 0.02 0.02 0.02 0.02 0.02 0.02 0.02 0.02 0.02 0.0199999 0.0199999 0.0199999 0.0199999 0.0199999 0.0199999 0.0199999 0.0199999 0.0199999 0.0199998 0.0199998 0.0199998 0.0199998 0.0199998 0.0199997 0.0199997 0.0199997 0.0199996 0.0199996 0.0199995 0.0199995 0.0199994 0.0199994 0.0199993 0.0199992 0.0199991 0.019999 0.0199989 0.0199988 0.0199987 0.0199986 0.0199984 0.0199983 0.0199981 0.019998 0.0199978 0.0199975 0.0199973 0.0199971 0.0199968 0.0199965 0.0199962 0.0199958 0.0199955 0.0199951 0.0199946 0.0199942 0.0199937 0.0199931 0.0199925 0.0199919 0.0199912 0.0199905 0.0199897 0.0199889 0.019988 0.0199871 0.0199861 0.019985 0.0199839 0.0199828 0.0199815 0.0199802 0.0199789 0.0199775 0.019976 0.0199745 0.019973 0.0199715 0.0199699 0.0199683 0.0199668 0.0199653 0.0199638 0.0199624 0.0199612 0.01996 0.019959 0.0199583 0.0199577 0.0199575 0.0199576 0.0199581 0.0199591 0.0199605 0.0199625 0.0199651 0.0199683 0.0199723 0.0199771 0.0199828 0.0199894 0.0199969 0.0200055 0.0200151 0.0200259 0.0200378 0.0200509 0.0200653 0.0200809 0.0200978 0.020116 0.0201354 0.0201562 0.0201782 0.0202014 0.0202257 0.0202511 0.0202774 0.0203046 0.0203327 0.0203614 0.0203907 0.0204205 0.0204507 0.0204812 0.0205118 0.0205425 0.0205732 0.0206037 0.0206339 0.0206638 0.0206932 0.0207221 0.0207504 0.020778 0.0208049 0.0208309 0.020856 0.0208802 0.0209034 0.0209256 0.0209468 0.0209669 0.020986 0.021004 0.021021 0.0210368 0.0210516 0.0210654 0.0210781 0.0210897 0.0211003 0.0211098 0.0211182 0.0211255 0.0211317 0.0211366 0.0211403 0.0211426 0.0211435 0.0211428 0.0211405 0.0211364 0.0211303 0.0211221 0.0211115 0.0210985 0.0210828 0.0210642 0.0210424 0.0210174 0.0209888 0.0209566 0.0209204 0.0208801 0.0208355 0.0207864 0.0207325 0.0206737 0.0206097 0.0205401 0.0204645 0.0203825 0.0202934 0.0201967 0.0200918 0.019978 0.0198542 0.0197219 0.0195796 0.0194294 0.019277 0.0191177 0.0189483 0.0187686 0.0185777 0.018375 0.0181593 0.0179296 0.0176848 0.0174236 0.0171451 0.0168486 0.0165343 0.0162075 0.0158775 0.0155277 0.0152468 0.0148072 0.0148205 0.0152487 0.0145829 0.0135891 0.0127417 0.0119585 0.0111562 0.0102797 0.00928885 0.00824419 0.00724253 0.00645532 0.00659269 0 0 0 0 0 0 0 0 0 0 0 0 0 0 0 0 0 0 0 0 0 0 0 0 0 0 0 0 0 0 0 0 0 0 0 0 0 0 0 0 0 0 0 0 0 0 0 0 0 0 0 0 0 0 0 0 0 0 0 0 0 0 0 0 0 0 0 0 0 0 0 0 0 0 0 0 0 0 0 0 0 0 0 0 0 0 0 0 0 0 0 0 0 0 0 0 0 0 0 0 0 0 0 0 0 0 0 0 0 0 0 0 0 0 0 0 0 0 0 0 0 0 0 0 0 0 0 0 0 0 0 0 0 0 0 0 0 0 0 0 0 0 0 0 0 0 0 0 0 0 0 0 0 0 0 0 0 0 0 0 0 0 0 0 0 0 0 0 0 0 0 0 0 0 0 0 0 0 0 0 0 0 0 0 0 0 0 0 0 0 0 0 0 0 0 0 0 0 0 0 0 0 0 0 0 0 0 0 0 0 0 0 0 0 0 0 0 0 0 0 0 0 0 0 0 0 0 0 0 0 0 0 0 0 0 0 0 0 0 0 0 0 0 0 0 0 0 0 0 0 0 0 0 0 0 0 0 0 0 0 0 0 0 0 0 0 0 0 0 0 0 0 0 0 0 0 0 0 0 0 0 0 0 0 0 0 0 0 0 0 0 0 0 0 0 0 0 0 0 0 0 0 0 0 0 0 0 0 0 0 0 0 0 0 0 0 0 0 0 0 0 0 0 0 0 0 0 0 0 0 0 0 0 0 0 0 0 0 0 0 0 0 0 0 0 0 0 0 0 0 0 0 0 
0.02 0.02 0.02 0.02 0.02 0.02 0.02 0.02 0.02 0.02 0.02 0.02 0.02 0.02 0.02 0.02 0.02 0.02 0.02 0.02 0.02 0.02 0.02 0.02 0.02 0.02 0.02 0.02 0.02 0.02 0.02 0.02 0.02 0.02 0.02 0.02 0.02 0.02 0.02 0.02 0.02 0.02 0.02 0.02 0.02 0.02 0.02 0.02 0.02 0.02 0.02 0.02 0.02 0.02 0.02 0.02 0.0199999 0.0199999 0.0199999 0.0199999 0.0199999 0.0199999 0.0199999 0.0199999 0.0199998 0.0199998 0.0199998 0.0199998 0.0199998 0.0199997 0.0199997 0.0199997 0.0199996 0.0199996 0.0199995 0.0199995 0.0199994 0.0199994 0.0199993 0.0199992 0.0199991 0.0199991 0.019999 0.0199989 0.0199987 0.0199986 0.0199985 0.0199983 0.0199982 0.019998 0.0199978 0.0199976 0.0199974 0.0199971 0.0199969 0.0199966 0.0199963 0.0199959 0.0199955 0.0199952 0.0199947 0.0199943 0.0199938 0.0199932 0.0199927 0.019992 0.0199914 0.0199907 0.0199899 0.0199891 0.0199882 0.0199873 0.0199863 0.0199852 0.0199841 0.019983 0.0199818 0.0199805 0.0199792 0.0199778 0.0199763 0.0199749 0.0199734 0.0199718 0.0199703 0.0199687 0.0199672 0.0199657 0.0199642 0.0199629 0.0199616 0.0199605 0.0199595 0.0199588 0.0199582 0.019958 0.0199581 0.0199586 0.0199596 0.019961 0.019963 0.0199656 0.0199688 0.0199728 0.0199776 0.0199832 0.0199898 0.0199973 0.0200058 0.0200154 0.020026 0.0200378 0.0200508 0.020065 0.0200804 0.0200971 0.0201151 0.0201344 0.0201549 0.0201766 0.0201996 0.0202236 0.0202487 0.0202748 0.0203018 0.0203295 0.020358 0.020387 0.0204165 0.0204465 0.0204767 0.020507 0.0205375 0.0205679 0.0205981 0.0206281 0.0206578 0.0206871 0.0207158 0.020744 0.0207714 0.0207982 0.0208241 0.0208493 0.0208735 0.0208968 0.0209191 0.0209404 0.0209608 0.0209801 0.0209984 0.0210158 0.0210321 0.0210474 0.0210617 0.021075 0.0210873 0.0210986 0.0211088 0.0211181 0.0211262 0.0211333 0.0211391 0.0211438 0.0211471 0.021149 0.0211494 0.0211481 0.021145 0.0211399 0.0211327 0.0211232 0.0211112 0.0210964 0.0210787 0.0210579 0.0210337 0.0210059 0.0209743 0.0209387 0.0208989 0.0208545 0.0208055 0.0207515 0.0206923 0.0206274 0.0205566 0.0204794 0.0203953 0.0203041 0.0202048 0.0200977 0.0199822 0.0198585 0.0197268 0.019588 0.0194438 0.0192928 0.0191327 0.0189626 0.0187819 0.01859 0.0183861 0.0181693 0.0179385 0.0176926 0.0174307 0.0171525 0.0168585 0.0165505 0.0162387 0.015943 0.0156488 0.015386 0.0151858 0.0148056 0.0147508 0.0142376 0.0134727 0.0126991 0.0119091 0.0110868 0.0101992 0.0092475 0.00829136 0.00727815 0.00638789 0.00570671 0.00454333 0.00320696 0.0018245 0.000360583 -0.00111506 -0.00269866 0 0 0 0 0 0 0 0 0 0 0 0 0 0 0 0 0 0 0 0 0 0 0 0 0 0 0 0 0 0 0 0 0 0 0 0 0 0 0 0 0 0 0 0 0 0 0 0 0 0 0 0 0 0 0 0 0 0 0 0 0 0 0 0 0 0 0 0 0 0 0 0 0 0 0 0 0 0 0 0 0 0 0 0 0 0 0 0 0 0 0 0 0 0 0 0 0 0 0 0 0 0 0 0 0 0 0 0 0 0 0 0 0 0 0 0 0 0 0 0 0 0 0 0 0 0 0 0 0 0 0 0 0 0 0 0 0 0 0 0 0 0 0 0 0 0 0 0 0 0 0 0 0 0 0 0 0 0 0 0 0 0 0 0 0 0 0 0 0 0 0 0 0 0 0 0 0 0 0 0 0 0 0 0 0 0 0 0 0 0 0 0 0 0 0 0 0 0 0 0 0 0 0 0 0 0 0 0 0 0 0 0 0 0 0 0 0 0 0 0 0 0 0 0 0 0 0 0 0 0 0 0 0 0 0 0 0 0 0 0 0 0 0 0 0 0 0 0 0 0 0 0 0 0 0 0 0 0 0 0 0 0 0 0 0 0 0 0 0 0 0 0 0 0 0 0 0 0 0 0 0 0 0 0 0 0 0 0 0 0 0 0 0 0 0 0 0 0 0 0 0 0 0 0 0 0 0 0 0 0 0 0 0 0 0 0 0 0 0 0 0 0 0 0 0 0 0 0 0 0 0 0 0 0 0 0 0 0 0 0 0 0 0 0 0 0 0 
0.02 0.02 0.02 0.02 0.02 0.02 0.02 0.02 0.02 0.02 0.02 0.02 0.02 0.02 0.02 0.02 0.02 0.02 0.02 0.02 0.02 0.02 0.02 0.02 0.02 0.02 0.02 0.02 0.02 0.02 0.02 0.02 0.02 0.02 0.02 0.02 0.02 0.02 0.02 0.02 0.02 0.02 0.02 0.02 0.02 0.02 0.02 0.02 0.02 0.02 0.02 0.02 0.02 0.02 0.02 0.02 0.0199999 0.0199999 0.0199999 0.0199999 0.0199999 0.0199999 0.0199999 0.0199999 0.0199999 0.0199998 0.0199998 0.0199998 0.0199998 0.0199997 0.0199997 0.0199997 0.0199996 0.0199996 0.0199995 0.0199995 0.0199994 0.0199994 0.0199993 0.0199992 0.0199992 0.0199991 0.019999 0.0199989 0.0199988 0.0199986 0.0199985 0.0199984 0.0199982 0.019998 0.0199978 0.0199976 0.0199974 0.0199972 0.0199969 0.0199966 0.0199963 0.019996 0.0199956 0.0199952 0.0199948 0.0199944 0.0199939 0.0199934 0.0199928 0.0199922 0.0199915 0.0199908 0.0199901 0.0199893 0.0199884 0.0199875 0.0199865 0.0199855 0.0199844 0.0199833 0.0199821 0.0199808 0.0199795 0.0199781 0.0199767 0.0199752 0.0199738 0.0199722 0.0199707 0.0199692 0.0199677 0.0199662 0.0199648 0.0199634 0.0199622 0.0199611 0.0199601 0.0199594 0.0199589 0.0199587 0.0199588 0.0199593 0.0199602 0.0199617 0.0199636 0.0199662 0.0199695 0.0199735 0.0199782 0.0199839 0.0199904 0.0199979 0.0200063 0.0200158 0.0200264 0.0200381 0.020051 0.020065 0.0200802 0.0200967 0.0201144 0.0201334 0.0201536 0.0201751 0.0201977 0.0202214 0.0202462 0.0202719 0.0202985 0.0203259 0.020354 0.0203827 0.0204119 0.0204414 0.0204713 0.0205013 0.0205314 0.0205614 0.0205914 0.0206211 0.0206505 0.0206795 0.020708 0.0207359 0.0207633 0.0207899 0.0208158 0.0208408 0.0208651 0.0208884 0.0209109 0.0209324 0.020953 0.0209727 0.0209914 0.0210092 0.0210261 0.021042 0.021057 0.021071 0.0210841 0.0210963 0.0211075 0.0211178 0.021127 0.0211352 0.0211422 0.0211481 0.0211526 0.0211558 0.0211574 0.0211575 0.0211557 0.0211519 0.021146 0.0211377 0.021127 0.0211134 0.0210969 0.0210771 0.021054 0.0210271 0.0209963 0.0209614 0.020922 0.0208779 0.0208288 0.0207745 0.0207145 0.0206485 0.0205762 0.0204972 0.0204113 0.0203182 0.0202178 0.0201098 0.0199948 0.0198726 0.0197438 0.0196086 0.019466 0.0193149 0.0191541 0.0189831 0.0188014 0.0186084 0.0184034 0.0181855 0.0179538 0.0177076 0.0174467 0.0171716 0.0168856 0.0165928 0.0163046 0.0160409 0.0158026 0.0155565 0.0153593 0.0150698 0.0146322 0.0140613 0.0133772 0.0126553 0.0118712 0.0110424 0.0101611 0.00924294 0.00833392 0.00742114 0.00642484 0.00553736 0.00439956 0.00313259 0.00179913 0.000377647 -0.00108675 -0.00261084 -0.00437169 -0.00615721 -0.00796619 -0.0101611 -0.0132452 0 0 0 0 0 0 0 0 0 0 0 0 0 0 0 0 0 0 0 0 0 0 0 0 0 0 0 0 0 0 0 0 0 0 0 0 0 0 0 0 0 0 0 0 0 0 0 0 0 0 0 0 0 0 0 0 0 0 0 0 0 0 0 0 0 0 0 0 0 0 0 0 0 0 0 0 0 0 0 0 0 0 0 0 0 0 0 0 0 0 0 0 0 0 0 0 0 0 0 0 0 0 0 0 0 0 0 0 0 0 0 0 0 0 0 0 0 0 0 0 0 0 0 0 0 0 0 0 0 0 0 0 0 0 0 0 0 0 0 0 0 0 0 0 0 0 0 0 0 0 0 0 0 0 0 0 0 0 0 0 0 0 0 0 0 0 0 0 0 0 0 0 0 0 0 0 0 0 0 0 0 0 0 0 0 0 0 0 0 0 0 0 0 0 0 0 0 0 0 0 0 0 0 0 0 0 0 0 0 0 0 0 0 0 0 0 0 0 0 0 0 0 0 0 0 0 0 0 0 0 0 0 0 0 0 0 0 0 0 0 0 0 0 0 0 0 0 0 0 0 0 0 0 0 0 0 0 0 0 0 0 0 0 0 0 0 0 0 0 0 0 0 0 0 0 0 0 0 0 0 0 0 0 0 0 0 0 0 0 0 0 0 0 0 0 0 0 0 0 0 0 0 0 0 0 0 0 0 0 0 0 0 0 0 0 0 0 0 0 0 0 0 0 0 0 0 0 0 0 0 0 0 0 0 0 0 0 0 0 0 0 -1.40946e-18 
0.02 0.02 0.02 0.02 0.02 0.02 0.02 0.02 0.02 0.02 0.02 0.02 0.02 0.02 0.02 0.02 0.02 0.02 0.02 0.02 0.02 0.02 0.02 0.02 0.02 0.02 0.02 0.02 0.02 0.02 0.02 0.02 0.02 0.02 0.02 0.02 0.02 0.02 0.02 0.02 0.02 0.02 0.02 0.02 0.02 0.02 0.02 0.02 0.02 0.02 0.02 0.02 0.02 0.02 0.02 0.02 0.0199999 0.0199999 0.0199999 0.0199999 0.0199999 0.0199999 0.0199999 0.0199999 0.0199999 0.0199998 0.0199998 0.0199998 0.0199998 0.0199997 0.0199997 0.0199997 0.0199996 0.0199996 0.0199996 0.0199995 0.0199995 0.0199994 0.0199993 0.0199993 0.0199992 0.0199991 0.019999 0.0199989 0.0199988 0.0199987 0.0199985 0.0199984 0.0199982 0.0199981 0.0199979 0.0199977 0.0199975 0.0199972 0.019997 0.0199967 0.0199964 0.0199961 0.0199957 0.0199954 0.0199949 0.0199945 0.019994 0.0199935 0.0199929 0.0199923 0.0199917 0.019991 0.0199903 0.0199895 0.0199886 0.0199877 0.0199868 0.0199858 0.0199847 0.0199836 0.0199824 0.0199812 0.0199799 0.0199785 0.0199771 0.0199757 0.0199743 0.0199728 0.0199713 0.0199698 0.0199683 0.0199668 0.0199654 0.0199641 0.0199629 0.0199618 0.0199609 0.0199602 0.0199597 0.0199595 0.0199596 0.0199601 0.0199611 0.0199625 0.0199645 0.019967 0.0199703 0.0199743 0.019979 0.0199846 0.0199911 0.0199985 0.020007 0.0200164 0.020027 0.0200386 0.0200513 0.0200652 0.0200802 0.0200964 0.0201139 0.0201325 0.0201524 0.0201735 0.0201958 0.0202191 0.0202435 0.0202688 0.020295 0.020322 0.0203496 0.0203779 0.0204066 0.0204357 0.0204651 0.0204947 0.0205244 0.0205541 0.0205836 0.020613 0.020642 0.0206707 0.020699 0.0207267 0.0207538 0.0207803 0.0208061 0.0208311 0.0208553 0.0208788 0.0209014 0.0209232 0.0209441 0.0209641 0.0209833 0.0210017 0.0210191 0.0210357 0.0210515 0.0210665 0.0210805 0.0210937 0.0211061 0.0211175 0.021128 0.0211374 0.0211458 0.0211531 0.021159 0.0211637 0.0211668 0.0211683 0.021168 0.0211657 0.0211613 0.0211545 0.0211452 0.021133 0.0211178 0.0210992 0.0210772 0.0210513 0.0210213 0.020987 0.0209479 0.0209038 0.0208544 0.0207993 0.0207384 0.0206712 0.0205975 0.0205173 0.0204304 0.0203369 0.0202366 0.0201299 0.0200167 0.019897 0.0197707 0.0196369 0.0194947 0.0193431 0.0191816 0.0190097 0.0188271 0.018633 0.0184269 0.0182081 0.0179761 0.0177307 0.017473 0.017205 0.0169315 0.0166591 0.0163955 0.0161535 0.0159321 0.0156945 0.0153853 0.0150466 0.014573 0.0139937 0.0133338 0.0126163 0.0118407 0.0110178 0.0101551 0.00926812 0.00837927 0.00748795 0.00654176 0.00548336 0.00431936 0.00306941 0.0017572 0.000361215 -0.00113107 -0.00267488 -0.0043672 -0.00611677 -0.00773244 -0.00981792 -0.0122226 -0.0143905 -0.0165548 -0.0187859 -0.0232975 -0.0240258 0 0 0 0 0 0 0 0 0 0 0 0 0 0 0 0 0 0 0 0 0 0 0 0 0 0 0 0 0 0 0 0 0 0 0 0 0 0 0 0 0 0 0 0 0 0 0 0 0 0 0 0 0 0 0 0 0 0 0 0 0 0 0 0 0 0 0 0 0 0 0 0 0 0 0 0 0 0 0 0 0 0 0 0 0 0 0 0 0 0 0 0 0 0 0 0 0 0 0 0 0 0 0 0 0 0 0 0 0 0 0 0 0 0 0 0 0 0 0 0 0 0 0 0 0 0 0 0 0 0 0 0 0 0 0 0 0 0 0 0 0 0 0 0 0 0 0 0 0 0 0 0 0 0 0 0 0 0 0 0 0 0 0 0 0 0 0 0 0 0 0 0 0 0 0 0 0 0 0 0 0 0 0 0 0 0 0 0 0 0 0 0 0 0 0 0 0 0 0 0 0 0 0 0 0 0 0 0 0 0 0 0 0 0 0 0 0 0 0 0 0 0 0 0 0 0 0 0 0 0 0 0 0 0 0 0 0 0 0 0 0 0 0 0 0 0 0 0 0 0 0 0 0 0 0 0 0 0 0 0 0 0 0 0 0 0 0 0 0 0 0 0 0 0 0 0 0 0 0 0 0 0 0 0 0 0 0 0 0 0 0 0 0 0 0 0 0 0 0 0 0 0 0 0 0 0 0 0 0 0 0 0 0 0 0 0 0 0 0 0 0 0 0 0 0 0 0 0 0 0 0 0 0 0 0 -0.00515787 -1.0842e-18 
0.02 0.02 0.02 0.02 0.02 0.02 0.02 0.02 0.02 0.02 0.02 0.02 0.02 0.02 0.02 0.02 0.02 0.02 0.02 0.02 0.02 0.02 0.02 0.02 0.02 0.02 0.02 0.02 0.02 0.02 0.02 0.02 0.02 0.02 0.02 0.02 0.02 0.02 0.02 0.02 0.02 0.02 0.02 0.02 0.02 0.02 0.02 0.02 0.02 0.02 0.02 0.02 0.02 0.02 0.02 0.02 0.0199999 0.0199999 0.0199999 0.0199999 0.0199999 0.0199999 0.0199999 0.0199999 0.0199999 0.0199998 0.0199998 0.0199998 0.0199998 0.0199998 0.0199997 0.0199997 0.0199997 0.0199996 0.0199996 0.0199995 0.0199995 0.0199994 0.0199994 0.0199993 0.0199992 0.0199991 0.019999 0.0199989 0.0199988 0.0199987 0.0199986 0.0199984 0.0199983 0.0199981 0.019998 0.0199978 0.0199975 0.0199973 0.0199971 0.0199968 0.0199965 0.0199962 0.0199958 0.0199955 0.0199951 0.0199946 0.0199942 0.0199937 0.0199931 0.0199925 0.0199919 0.0199912 0.0199905 0.0199897 0.0199889 0.019988 0.0199871 0.0199861 0.0199851 0.019984 0.0199828 0.0199816 0.0199803 0.019979 0.0199777 0.0199763 0.0199748 0.0199734 0.0199719 0.0199705 0.019969 0.0199676 0.0199662 0.0199649 0.0199638 0.0199627 0.0199618 0.0199611 0.0199607 0.0199605 0.0199606 0.0199612 0.0199621 0.0199635 0.0199655 0.0199681 0.0199713 0.0199752 0.0199799 0.0199855 0.0199919 0.0199993 0.0200077 0.0200171 0.0200275 0.0200391 0.0200517 0.0200654 0.0200803 0.0200963 0.0201135 0.0201318 0.0201513 0.020172 0.0201938 0.0202167 0.0202406 0.0202655 0.0202912 0.0203177 0.0203448 0.0203726 0.0204008 0.0204295 0.0204584 0.0204875 0.0205167 0.0205459 0.020575 0.0206039 0.0206326 0.020661 0.0206889 0.0207163 0.0207432 0.0207695 0.0207952 0.0208202 0.0208445 0.020868 0.0208908 0.0209128 0.0209341 0.0209546 0.0209743 0.0209932 0.0210114 0.0210288 0.0210454 0.0210613 0.0210765 0.0210908 0.0211044 0.0211171 0.021129 0.0211399 0.0211498 0.0211585 0.0211661 0.0211724 0.0211771 0.0211803 0.0211816 0.021181 0.0211782 0.021173 0.0211652 0.0211545 0.0211406 0.0211234 0.0211024 0.0210774 0.021048 0.021014 0.020975 0.0209307 0.0208808 0.0208251 0.0207632 0.0206952 0.020621 0.0205405 0.0204539 0.0203613 0.0202627 0.020158 0.0200471 0.0199295 0.0198045 0.0196713 0.0195289 0.0193769 0.0192148 0.0190422 0.0188587 0.0186638 0.018457 0.0182381 0.0180072 0.017765 0.0175139 0.0172571 0.0169996 0.0167472 0.0165029 0.0162665 0.0160334 0.0157761 0.0154601 0.0150445 0.0145364 0.0139524 0.0133012 0.0125892 0.0118239 0.0110155 0.0101746 0.00930923 0.00842405 0.00750736 0.00653009 0.00545705 0.00429127 0.00303825 0.00171261 0.00030834 -0.00116596 -0.00276552 -0.00443043 -0.00618155 -0.00798633 -0.00980433 -0.0121299 -0.0141886 -0.0162832 -0.0184724 -0.0212776 -0.0241151 -0.0263455 -0.0287257 -0.0320026 -0.03799 0 0 0 0 0 0 0 0 0 0 0 0 0 0 0 0 0 0 0 0 0 0 0 0 0 0 0 0 0 0 0 0 0 0 0 0 0 0 0 0 0 0 0 0 0 0 0 0 0 0 0 0 0 0 0 0 0 0 0 0 0 0 0 0 0 0 0 0 0 0 0 0 0 0 0 0 0 0 0 0 0 0 0 0 0 0 0 0 0 0 0 0 0 0 0 0 0 0 0 0 0 0 0 0 0 0 0 0 0 0 0 0 0 0 0 0 0 0 0 0 0 0 0 0 0 0 0 0 0 0 0 0 0 0 0 0 0 0 0 0 0 0 0 0 0 0 0 0 0 0 0 0 0 0 0 0 0 0 0 0 0 0 0 0 0 0 0 0 0 0 0 0 0 0 0 0 0 0 0 0 0 0 0 0 0 0 0 0 0 0 0 0 0 0 0 0 0 0 0 0 0 0 0 0 0 0 0 0 0 0 0 0 0 0 0 0 0 0 0 0 0 0 0 0 0 0 0 0 0 0 0 0 0 0 0 0 0 0 0 0 0 0 0 0 0 0 0 0 0 0 0 0 0 0 0 0 0 0 0 0 0 0 0 0 0 0 0 0 0 0 0 0 0 0 0 0 0 0 0 0 0 0 0 0 0 0 0 0 0 0 0 0 0 0 0 0 0 0 0 0 0 0 0 0 0 0 0 0 0 0 0 0 0 0 0 0 0 0 0 0 0 0 0 0 0 0 0 0 0 0 -0.0174989 -0.00905581 -2.1684e-19 
0.02 0.02 0.02 0.02 0.02 0.02 0.02 0.02 0.02 0.02 0.02 0.02 0.02 0.02 0.02 0.02 0.02 0.02 0.02 0.02 0.02 0.02 0.02 0.02 0.02 0.02 0.02 0.02 0.02 0.02 0.02 0.02 0.02 0.02 0.02 0.02 0.02 0.02 0.02 0.02 0.02 0.02 0.02 0.02 0.02 0.02 0.02 0.02 0.02 0.02 0.02 0.02 0.02 0.02 0.02 0.02 0.02 0.0199999 0.0199999 0.0199999 0.0199999 0.0199999 0.0199999 0.0199999 0.0199999 0.0199999 0.0199998 0.0199998 0.0199998 0.0199998 0.0199997 0.0199997 0.0199997 0.0199996 0.0199996 0.0199995 0.0199995 0.0199994 0.0199994 0.0199993 0.0199992 0.0199992 0.0199991 0.019999 0.0199989 0.0199988 0.0199986 0.0199985 0.0199984 0.0199982 0.019998 0.0199978 0.0199976 0.0199974 0.0199972 0.0199969 0.0199966 0.0199963 0.019996 0.0199956 0.0199952 0.0199948 0.0199943 0.0199938 0.0199933 0.0199927 0.0199921 0.0199915 0.0199908 0.01999 0.0199892 0.0199884 0.0199875 0.0199865 0.0199855 0.0199844 0.0199833 0.0199821 0.0199809 0.0199796 0.0199783 0.0199769 0.0199755 0.0199741 0.0199727 0.0199713 0.0199699 0.0199685 0.0199672 0.0199659 0.0199648 0.0199638 0.0199629 0.0199622 0.0199618 0.0199617 0.0199619 0.0199624 0.0199634 0.0199648 0.0199668 0.0199693 0.0199725 0.0199764 0.0199811 0.0199866 0.019993 0.0200003 0.0200085 0.0200178 0.0200282 0.0200396 0.0200521 0.0200657 0.0200804 0.0200962 0.0201131 0.0201311 0.0201503 0.0201705 0.0201919 0.0202143 0.0202377 0.020262 0.0202872 0.0203131 0.0203398 0.020367 0.0203946 0.0204227 0.0204511 0.0204796 0.0205083 0.020537 0.0205656 0.0205941 0.0206224 0.0206503 0.0206779 0.020705 0.0207317 0.0207578 0.0207834 0.0208083 0.0208326 0.0208562 0.0208792 0.0209015 0.0209231 0.0209441 0.0209643 0.0209839 0.0210028 0.0210211 0.0210387 0.0210557 0.0210719 0.0210875 0.0211024 0.0211166 0.0211299 0.0211423 0.0211538 0.0211643 0.0211736 0.0211815 0.0211881 0.021193 0.0211961 0.0211972 0.0211961 0.0211926 0.0211863 0.0211771 0.0211646 0.0211485 0.0211285 0.0211042 0.0210753 0.0210415 0.0210024 0.0209578 0.0209075 0.0208513 0.0207892 0.0207211 0.0206473 0.0205678 0.0204826 0.0203919 0.0202955 0.020193 0.020084 0.0199678 0.0198435 0.0197105 0.0195681 0.0194158 0.0192533 0.0190802 0.0188961 0.0187009 0.0184943 0.0182767 0.0180489 0.0178129 0.0175715 0.0173286 0.0170879 0.0168518 0.0166191 0.0163808 0.0161235 0.0158284 0.0154681 0.0150312 0.014517 0.0139318 0.0132828 0.0125776 0.0118249 0.0110333 0.0102108 0.00935879 0.00847032 0.00753652 0.00653074 0.00544284 0.00427004 0.00301476 0.00167705 0.000257395 -0.0012475 -0.0028337 -0.0045079 -0.00627895 -0.00816957 -0.010148 -0.0121888 -0.0142525 -0.0163361 -0.0187169 -0.0211351 -0.0236696 -0.0258904 -0.0283521 -0.0299979 -0.0343148 -0.0367897 -0.0383371 -0.0406224 -0.0470648 -0.0467471 0 0 0 0 0 0 0 0 0 0 0 0 0 0 0 0 0 0 0 0 0 0 0 0 0 0 0 0 0 0 0 0 0 0 0 0 0 0 0 0 0 0 0 0 0 0 0 0 0 0 0 0 0 0 0 0 0 0 0 0 0 0 0 0 0 0 0 0 0 0 0 0 0 0 0 0 0 0 0 0 0 0 0 0 0 0 0 0 0 0 0 0 0 0 0 0 0 0 0 0 0 0 0 0 0 0 0 0 0 0 0 0 0 0 0 0 0 0 0 0 0 0 0 0 0 0 0 0 0 0 0 0 0 0 0 0 0 0 0 0 0 0 0 0 0 0 0 0 0 0 0 0 0 0 0 0 0 0 0 0 0 0 0 0 0 0 0 0 0 0 0 0 0 0 0 0 0 0 0 0 0 0 0 0 0 0 0 0 0 0 0 0 0 0 0 0 0 0 0 0 0 0 0 0 0 0 0 0 0 0 0 0 0 0 0 0 0 0 0 0 0 0 0 0 0 0 0 0 0 0 0 0 0 0 0 0 0 0 0 0 0 0 0 0 0 0 0 0 0 0 0 0 0 0 0 0 0 0 0 0 0 0 0 0 0 0 0 0 0 0 0 0 0 0 0 0 0 0 0 0 0 0 0 0 0 0 0 0 0 0 0 0 0 0 0 0 0 0 0 0 0 0 0 0 0 0 0 0 0 0 0 0 0 0 0 0 0 0 0 0 0 0 -0.0385763 -0.0368001 -0.0301553 -0.021554 -0.0118087 -2.38524e-18 
0.02 0.02 0.02 0.02 0.02 0.02 0.02 0.02 0.02 0.02 0.02 0.02 0.02 0.02 0.02 0.02 0.02 0.02 0.02 0.02 0.02 0.02 0.02 0.02 0.02 0.02 0.02 0.02 0.02 0.02 0.02 0.02 0.02 0.02 0.02 0.02 0.02 0.02 0.02 0.02 0.02 0.02 0.02 0.02 0.02 0.02 0.02 0.02 0.02 0.02 0.02 0.02 0.02 0.02 0.02 0.02 0.02 0.0199999 0.0199999 0.0199999 0.0199999 0.0199999 0.0199999 0.0199999 0.0199999 0.0199999 0.0199998 0.0199998 0.0199998 0.0199998 0.0199997 0.0199997 0.0199997 0.0199996 0.0199996 0.0199996 0.0199995 0.0199995 0.0199994 0.0199993 0.0199993 0.0199992 0.0199991 0.019999 0.0199989 0.0199988 0.0199987 0.0199986 0.0199984 0.0199983 0.0199981 0.0199979 0.0199977 0.0199975 0.0199973 0.019997 0.0199967 0.0199964 0.0199961 0.0199958 0.0199954 0.019995 0.0199945 0.019994 0.0199935 0.019993 0.0199924 0.0199917 0.0199911 0.0199903 0.0199896 0.0199887 0.0199878 0.0199869 0.0199859 0.0199849 0.0199838 0.0199827 0.0199815 0.0199802 0.0199789 0.0199776 0.0199763 0.0199749 0.0199735 0.0199722 0.0199708 0.0199695 0.0199682 0.019967 0.0199659 0.019965 0.0199642 0.0199635 0.0199632 0.0199631 0.0199633 0.0199638 0.0199648 0.0199663 0.0199683 0.0199708 0.019974 0.0199779 0.0199825 0.0199879 0.0199942 0.0200014 0.0200096 0.0200187 0.020029 0.0200402 0.0200526 0.020066 0.0200805 0.0200961 0.0201127 0.0201304 0.0201492 0.020169 0.0201899 0.0202118 0.0202347 0.0202584 0.020283 0.0203084 0.0203344 0.020361 0.0203881 0.0204155 0.0204433 0.0204713 0.0204994 0.0205275 0.0205556 0.0205836 0.0206114 0.0206389 0.0206661 0.0206929 0.0207193 0.0207452 0.0207706 0.0207955 0.0208198 0.0208436 0.0208667 0.0208893 0.0209113 0.0209327 0.0209536 0.0209738 0.0209935 0.0210127 0.0210313 0.0210494 0.0210669 0.0210838 0.0211 0.0211156 0.0211305 0.0211446 0.0211577 0.0211699 0.021181 0.0211908 0.0211991 0.0212059 0.0212108 0.0212137 0.0212144 0.0212125 0.0212078 0.0212 0.0211887 0.0211736 0.0211544 0.0211306 0.021102 0.0210683 0.0210292 0.0209845 0.0209342 0.0208782 0.0208166 0.0207496 0.0206771 0.0205994 0.0205164 0.0204279 0.0203336 0.020233 0.0201255 0.0200102 0.0198866 0.0197538 0.0196115 0.0194592 0.0192965 0.0191233 0.0189392 0.0187445 0.0185394 0.0183249 0.0181026 0.0178751 0.0176453 0.017416 0.0171889 0.0169623 0.0167305 0.0164826 0.0162019 0.0158741 0.0154879 0.015034 0.0145113 0.0139242 0.0132791 0.0125833 0.0118439 0.0110671 0.0102568 0.00941032 0.00851807 0.0075654 0.00654367 0.0054428 0.00426036 0.00299725 0.00165191 0.000219908 -0.00129371 -0.0028929 -0.00457948 -0.00637037 -0.0082531 -0.0102339 -0.0122847 -0.0144034 -0.0165612 -0.0187948 -0.0212886 -0.0235856 -0.0258963 -0.0284129 -0.0311768 -0.0336383 -0.0358954 -0.0378698 -0.0402685 -0.0438785 -0.0465595 -0.0484491 -0.0496362 -0.0501075 -0.0517742 -0.0548634 -0.0640611 0 0 0 0 0 0 0 0 0 0 0 0 0 0 0 0 0 0 0 0 0 0 0 0 0 0 0 0 0 0 0 0 0 0 0 0 0 0 0 0 0 0 0 0 0 0 0 0 0 0 0 0 0 0 0 0 0 0 0 0 0 0 0 0 0 0 0 0 0 0 0 0 0 0 0 0 0 0 0 0 0 0 0 0 0 0 0 0 0 0 0 0 0 0 0 0 0 0 0 0 0 0 0 0 0 0 0 0 0 0 0 0 0 0 0 0 0 0 0 0 0 0 0 0 0 0 0 0 0 0 0 0 0 0 0 0 0 0 0 0 0 0 0 0 0 0 0 0 0 0 0 0 0 0 0 0 0 0 0 0 0 0 0 0 0 0 0 0 0 0 0 0 0 0 0 0 0 0 0 0 0 0 0 0 0 0 0 -0.0486026 -0.0534116 -0.0545504 -0.0548735 -0.0549331 -0.0548947 -0.0548073 -0.0546932 -0.0545648 -0.0544287 -0.0542894 -0.0541497 -0.0540118 -0.0538777 -0.0537486 -0.0536259 -0.0535101 -0.0534018 -0.053301 -0.0532071 -0.0531198 -0.0530381 -0.0529615 -0.052889 -0.0528204 -0.0527551 -0.052693 -0.0526344 -0.0525796 -0.0525292 -0.0524839 -0.0524448 -0.0524127 -0.0523887 -0.0523737 -0.0523684 -0.0523736 -0.0523899 -0.0524177 -0.0524577 -0.0525103 -0.0525756 -0.0526536 -0.0527434 -0.0528444 -0.0529572 -0.0530856 -0.0532319 -0.0533978 -0.0536765 -0.0549857 -0.0634621 0 0 0 0 0 0 0 0 0 0 0 0 0 0 0 0 0 0 0 0 0 0 0 0 0 0 0 0 0 0 0 0 0 0 0 0 0 0 0 0 0 0 0 0 0 0 0 0 0 0 0 0 0 0 0 0 0 0 0 0 0 0 0 0 0 0 0 0 0 -0.0512962 -0.0529399 -0.0533837 -0.0535078 -0.0533039 -0.0523947 -0.0501023 -0.0474039 -0.043449 -0.0384403 -0.0317057 -0.0234508 -0.0133554 -4.33681e-18 