# vtk DataFile Version 2.0
iteration 459
ASCII

DATASET STRUCTURED_POINTS
DIMENSIONS 621 64 1
ORIGIN 0 0 0
SPACING 0.00161031 0.00161031 0.00161031

POINT_DATA 39744
SCALARS P float 1
LOOKUP_TABLE default
0 0 0 0 0 0 0 0 0 0 0 0 0 0 0 0 0 0 0 0 0 0 0 0 0 0 0 0 0 0 0 0 0 0 0 0 0 0 0 0 0 0 0 0 0 0 0 0 0 0 0 0 0 0 0 0 0 0 0 0 0 0 0 0 0 0 0 0 0 0 0 0 0 0 0 0 0 0 0 0 0 0 0 0 0 0 0 0 0 0 0 0 0 0 0 0 0 0 0 0 0 0 0 0 0 0 0 0 0 0 0 0 0 0 0 0 0 0 0 0 0 0 0 0 0 0 0 0 0 0 0 0 0 0 0 0 0 0 0 0 0 0 0 0 0 0 0 0 0 0 0 0 0 0 0 0 0 0 0 0 0 0 0 0 0 0 0 0 0 0 0 0 0 0 0 0 0 0 0 0 0 0 0 0 0 0 0 0 0 0 0 0 0 0 0 0 0 0 0 0 0 0 0 0 0 0 0 0 0 0 0 0 0 0 0 0 0 0 0 0 0 0 0 0 0 0 0 0 0 0 0 0 0 0 0 0 0 0 0 0 0 0 0 0 0 0 0 0 0 0 0 0 0 0 0 0 0 0 0 0 0 0 0 0 0 0 0 0 0 0 0 0 0 0 0 0 0 0 0 0 0 0 0 0 0 0 0 0 0 0 0 0 0 0 0 0 0 0 0 0 0 0 0 0 0 0 0 0 0 0 0 0 0 0 0 0 0 0 0 0 0 0 0 0 0 0 0 0 0 0 0 0 0 0 0 0 0 0 0 0 0 0 0 0 0 0 0 0 0 0 0 0 0 0 0 0 0 0 0 0 0 0 0 0 0 0 0 0 0 0 0 0 0 0 0 0 0 0 0 0 0 0 0 0 0 0 0 0 0 0 0 0 0 0 0 0 0 0 0 0 0 0 0 0 0 0 0 0 0 0 0 0 0 0 0 0 0 0 0 0 0 0 0 0 0 0 0 0 0 0 0 0 0 0 0 0 0 0 0 0 0 0 0 0 0 0 0 0 0 0 0 0 0 0 0 0 0 0 0 0 0 0 0 0 0 0 0 0 0 0 0 0 0 0 0 0 0 0 0 0 0 0 0 0 0 0 0 0 0 0 0 0 0 0 0 0 0 0 0 0 0 0 0 0 0 0 0 0 0 0 0 0 0 0 0 0 0 0 0 0 0 0 0 0 0 0 0 0 0 0 0 0 0 0 0 0 0 0 0 0 0 0 0 0 0 0 0 0 0 0 0 0 0 0 0 0 0 0 0 0 0 0 0 0 0 0 0 0 0 0 0 0 0 0 0 0 0 0 0 0 0 0 0 0 0 0 0 0 0 0 0 0 0 0 0 0 0 0 0 0 0 0 0 0 0 0 0 0 0 0 0 0 0 0 0 0 0 0 0 0 0 
0.02 0.02 0.02 0.02 0.02 0.0200001 0.0200001 0.0200001 0.0200001 0.0200001 0.0200001 0.0200001 0.0200001 0.0200001 0.0200001 0.0200001 0.02 0.02 0.02 0.02 0.02 0.0200001 0.0200003 0.0200007 0.0200011 0.0200018 0.0200027 0.0200039 0.0200054 0.0200073 0.0200096 0.0200124 0.0200156 0.0200193 0.0200235 0.0200282 0.0200334 0.0200391 0.0200453 0.020052 0.0200591 0.0200666 0.0200744 0.0200827 0.0200913 0.0201002 0.0201094 0.0201191 0.0201291 0.0201395 0.0201504 0.0201618 0.0201738 0.0201863 0.0201994 0.0202131 0.0202274 0.0202424 0.0202579 0.020274 0.0202906 0.0203074 0.0203244 0.0203413 0.0203574 0.0203722 0.0203848 0.0203937 0.0203974 0.0203935 0.0203793 0.0203513 0.0203055 0.0202371 0.0201413 0.0200131 0.0198476 0.0196403 0.0193863 0.019081 0.0187201 0.0182997 0.0178186 0.0172806 0.016696 0.0160847 0.0154783 0.0149354 0.0145519 0.014623 0.01686 0 0 0 0 0 0 0 0 0 0 0 0 0 0 0 0 0 0 0 0 0 0 0 0 0 0 0 0 0 0 0 0 0 0 0 0 0 0 0 0 0 0 0 0 0 0 0 0 0 0 0 0 0 0 0 0 0 0 0 0 0 0 0 0 0 0 0 0 0 0 0 0 0 0 0 0 0 0 0 0 0 0 0 0 0 0 0 0 0 0 0 0 0 0 0 0 0 0 0 0 0 0 0 0 0 0 0 0 0 0 0 0 0 0 0 0 0 0 0 0 0 0 0 0 0 0 0 0 0 0 0 0 0 0 0 0 0 0 0 0 0 0 0 0 0 0 0 0 0 0 0 0 0 0 0 0 0 0 0 0 0 0 0 0 0 0 0 0 0 0 0 0 0 0 0 0 0 0 0 0 0 0 0 0 0 0 0 0 0 0 0 0 0 0 0 0 0 0 0 0 0 0 0 0 0 0 0 0 0 0 0 0 0 0 0 0 0 0 0 0 0 0 0 0 0 0 0 0 0 0 0 0 0 0 0 0 0 0 0 0 0 0 0 0 0 0 0 0 0 0 0 0 0 0 0 0 0 0 0 0 0 0 0 0 0 0 0 0 0 0 0 0 0 0 0 0 0 0 0 0 0 0 0 0 0 0 0 0 0 0 0 0 0 0 0 0 0 0 0 0 0 0 0 0 0 0 0 0 0 0 0 0 0 0 0 0 0 0 0 0 0 0 0 0 0 0 0 0 0 0 0 0 0 0 0 0 0 0 0 0 0 0 0 0 0 0 0 0 0 0 0 0 0 0 0 0 0 0 0 0 0 0 0 0 0 0 0 0 0 0 0 0 0 0 0 0 0 0 0 0 0 0 0 0 0 0 0 0 0 0 0 0 0 0 0 0 0 0 0 0 0 0 0 0 0 0 0 0 0 0 0 0 0 0 0 0 0 0 0 0 0 0 0 0 0 0 0 0 0 0 0 0 0 0 0 0 0 0 0 0 0 0 0 0 0 0 0 0 0 0 0 0 0 0 0 0 0 0 0 0 0 0 0 0 0 0 0 0 0 0 0 0 0 0 0 0 0 0 0 0 0 0 0 0 0 0 0 0 0 0 0 0 0 0 0 0 0 0 0 0 0 0 0 0 0 0 0 0 0 0 0 0 0 0 0 0 0 0 0 0 0 0 0 0 0 0 0 0 0 0 
0.02 0.02 0.02 0.02 0.02 0.02 0.0200001 0.0200001 0.0200001 0.0200001 0.0200001 0.0200001 0.0200001 0.0200001 0.0200001 0.02 0.02 0.0199999 0.0199999 0.0199999 0.0199999 0.02 0.0200001 0.0200004 0.0200009 0.0200015 0.0200023 0.0200035 0.0200049 0.0200067 0.0200089 0.0200116 0.0200146 0.0200182 0.0200222 0.0200268 0.0200318 0.0200373 0.0200432 0.0200496 0.0200564 0.0200636 0.0200712 0.0200791 0.0200873 0.0200958 0.0201046 0.0201138 0.0201234 0.0201333 0.0201437 0.0201545 0.0201659 0.0201778 0.0201903 0.0202034 0.0202171 0.0202314 0.0202463 0.0202617 0.0202777 0.020294 0.0203105 0.0203269 0.0203427 0.0203572 0.0203696 0.0203786 0.0203824 0.0203788 0.0203652 0.0203379 0.020293 0.0202258 0.0201315 0.0200052 0.019842 0.0196374 0.0193866 0.0190849 0.0187273 0.0183101 0.0178324 0.0172983 0.0167179 0.0161098 0.0155079 0.0149739 0.0146185 0.014623 0.0151175 0.0154191 0.0156977 0.0162228 0.0190083 0 0 0 0 0 0 0 0 0 0 0 0 0 0 0 0 0 0 0 0 0 0 0 0 0 0 0 0 0 0 0 0 0 0 0 0 0 0 0 0 0 0 0 0 0 0 0 0 0 0 0 0 0 0 0 0 0 0 0 0 0 0 0 0 0 0 0 0 0 0 0 0 0 0 0 0 0 0 0 0 0 0 0 0 0 0 0 0 0 0 0 0 0 0 0 0 0 0 0 0 0 0 0 0 0 0 0 0 0 0 0 0 0 0 0 0 0 0 0 0 0 0 0 0 0 0 0 0 0 0 0 0 0 0 0 0 0 0 0 0 0 0 0 0 0 0 0 0 0 0 0 0 0 0 0 0 0 0 0 0 0 0 0 0 0 0 0 0 0 0 0 0 0 0 0 0 0 0 0 0 0 0 0 0 0 0 0 0 0 0 0 0 0 0 0 0 0 0 0 0 0 0 0 0 0 0 0 0 0 0 0 0 0 0 0 0 0 0 0 0 0 0 0 0 0 0 0 0 0 0 0 0 0 0 0 0 0 0 0 0 0 0 0 0 0 0 0 0 0 0 0 0 0 0 0 0 0 0 0 0 0 0 0 0 0 0 0 0 0 0 0 0 0 0 0 0 0 0 0 0 0 0 0 0 0 0 0 0 0 0 0 0 0 0 0 0 0 0 0 0 0 0 0 0 0 0 0 0 0 0 0 0 0 0 0 0 0 0 0 0 0 0 0 0 0 0 0 0 0 0 0 0 0 0 0 0 0 0 0 0 0 0 0 0 0 0 0 0 0 0 0 0 0 0 0 0 0 0 0 0 0 0 0 0 0 0 0 0 0 0 0 0 0 0 0 0 0 0 0 0 0 0 0 0 0 0 0 0 0 0 0 0 0 0 0 0 0 0 0 0 0 0 0 0 0 0 0 0 0 0 0 0 0 0 0 0 0 0 0 0 0 0 0 0 0 0 0 0 0 0 0 0 0 0 0 0 0 0 0 0 0 0 0 0 0 0 0 0 0 0 0 0 0 0 0 0 0 0 0 0 0 0 0 0 0 0 0 0 0 0 0 0 0 0 0 0 0 0 0 0 0 0 0 0 0 0 0 0 0 0 0 0 0 0 0 0 0 0 0 0 0 0 0 0 0 0 0 0 0 0 0 0 0 0 0 0 0 0 0 0 0 0 0 0 0 0 
0.02 0.02 0.02 0.02 0.02 0.02 0.0200001 0.0200001 0.0200001 0.0200001 0.0200001 0.0200001 0.0200001 0.02 0.02 0.02 0.0199999 0.0199998 0.0199998 0.0199997 0.0199997 0.0199998 0.0199999 0.0200002 0.0200005 0.0200011 0.0200019 0.0200029 0.0200043 0.020006 0.0200081 0.0200105 0.0200134 0.0200168 0.0200206 0.0200249 0.0200297 0.0200349 0.0200405 0.0200466 0.020053 0.0200598 0.0200669 0.0200743 0.020082 0.02009 0.0200983 0.0201068 0.0201157 0.0201249 0.0201346 0.0201447 0.0201552 0.0201663 0.020178 0.0201902 0.0202031 0.0202165 0.0202306 0.0202453 0.0202605 0.0202762 0.0202921 0.020308 0.0203235 0.0203379 0.0203503 0.0203595 0.0203636 0.0203606 0.0203477 0.0203212 0.0202773 0.0202112 0.0201181 0.0199929 0.0198309 0.0196274 0.0193776 0.0190766 0.0187197 0.0183033 0.0178258 0.0172912 0.0167097 0.016101 0.0155022 0.014979 0.0146505 0.0146095 0.0148697 0.0151245 0.0154264 0.0158683 0.0167724 0.0173346 0.0180582 0.0204746 0 0 0 0 0 0 0 0 0 0 0 0 0 0 0 0 0 0 0 0 0 0 0 0 0 0 0 0 0 0 0 0 0 0 0 0 0 0 0 0 0 0 0 0 0 0 0 0 0 0 0 0 0 0 0 0 0 0 0 0 0 0 0 0 0 0 0 0 0 0 0 0 0 0 0 0 0 0 0 0 0 0 0 0 0 0 0 0 0 0 0 0 0 0 0 0 0 0 0 0 0 0 0 0 0 0 0 0 0 0 0 0 0 0 0 0 0 0 0 0 0 0 0 0 0 0 0 0 0 0 0 0 0 0 0 0 0 0 0 0 0 0 0 0 0 0 0 0 0 0 0 0 0 0 0 0 0 0 0 0 0 0 0 0 0 0 0 0 0 0 0 0 0 0 0 0 0 0 0 0 0 0 0 0 0 0 0 0 0 0 0 0 0 0 0 0 0 0 0 0 0 0 0 0 0 0 0 0 0 0 0 0 0 0 0 0 0 0 0 0 0 0 0 0 0 0 0 0 0 0 0 0 0 0 0 0 0 0 0 0 0 0 0 0 0 0 0 0 0 0 0 0 0 0 0 0 0 0 0 0 0 0 0 0 0 0 0 0 0 0 0 0 0 0 0 0 0 0 0 0 0 0 0 0 0 0 0 0 0 0 0 0 0 0 0 0 0 0 0 0 0 0 0 0 0 0 0 0 0 0 0 0 0 0 0 0 0 0 0 0 0 0 0 0 0 0 0 0 0 0 0 0 0 0 0 0 0 0 0 0 0 0 0 0 0 0 0 0 0 0 0 0 0 0 0 0 0 0 0 0 0 0 0 0 0 0 0 0 0 0 0 0 0 0 0 0 0 0 0 0 0 0 0 0 0 0 0 0 0 0 0 0 0 0 0 0 0 0 0 0 0 0 0 0 0 0 0 0 0 0 0 0 0 0 0 0 0 0 0 0 0 0 0 0 0 0 0 0 0 0 0 0 0 0 0 0 0 0 0 0 0 0 0 0 0 0 0 0 0 0 0 0 0 0 0 0 0 0 0 0 0 0 0 0 0 0 0 0 0 0 0 0 0 0 0 0 0 0 0 0 0 0 0 0 0 0 0 0 0 0 0 0 0 0 0 0 0 0 0 0 0 0 0 0 0 0 0 0 0 0 0 0 0 0 0 0 0 0 0 0 0 0 -2.71051e-20 
0.02 0.02 0.02 0.02 0.02 0.02 0.02 0.0200001 0.0200001 0.0200001 0.0200001 0.0200001 0.02 0.02 0.0199999 0.0199999 0.0199998 0.0199997 0.0199996 0.0199996 0.0199995 0.0199996 0.0199996 0.0199998 0.0200001 0.0200006 0.0200013 0.0200023 0.0200035 0.0200051 0.020007 0.0200093 0.020012 0.0200151 0.0200187 0.0200227 0.0200271 0.0200319 0.0200371 0.0200427 0.0200487 0.0200549 0.0200615 0.0200683 0.0200753 0.0200826 0.0200901 0.0200978 0.0201058 0.0201142 0.0201228 0.0201319 0.0201414 0.0201514 0.020162 0.0201731 0.0201848 0.0201971 0.02021 0.0202236 0.0202377 0.0202524 0.0202674 0.0202825 0.0202974 0.0203113 0.0203233 0.0203323 0.0203366 0.0203338 0.0203213 0.0202955 0.0202523 0.0201871 0.0200948 0.0199705 0.0198094 0.0196066 0.0193575 0.019057 0.0187003 0.0182832 0.0178045 0.0172685 0.016687 0.01608 0.0154848 0.0149711 0.0146304 0.0145361 0.0146741 0.0148899 0.015205 0.0156589 0.016216 0.0162233 0.0166143 0.0177537 0.0201007 0.0196976 0 0 0 0 0 0 0 0 0 0 0 0 0 0 0 0 0 0 0 0 0 0 0 0 0 0 0 0 0 0 0 0 0 0 0 0 0 0 0 0 0 0 0 0 0 0 0 0 0 0 0 0 0 0 0 0 0 0 0 0 0 0 0 0 0 0 0 0 0 0 0 0 0 0 0 0 0 0 0 0 0 0 0 0 0 0 0 0 0 0 0 0 0 0 0 0 0 0 0 0 0 0 0 0 0 0 0 0 0 0 0 0 0 0 0 0 0 0 0 0 0 0 0 0 0 0 0 0 0 0 0 0 0 0 0 0 0 0 0 0 0 0 0 0 0 0 0 0 0 0 0 0 0 0 0 0 0 0 0 0 0 0 0 0 0 0 0 0 0 0 0 0 0 0 0 0 0 0 0 0 0 0 0 0 0 0 0 0 0 0 0 0 0 0 0 0 0 0 0 0 0 0 0 0 0 0 0 0 0 0 0 0 0 0 0 0 0 0 0 0 0 0 0 0 0 0 0 0 0 0 0 0 0 0 0 0 0 0 0 0 0 0 0 0 0 0 0 0 0 0 0 0 0 0 0 0 0 0 0 0 0 0 0 0 0 0 0 0 0 0 0 0 0 0 0 0 0 0 0 0 0 0 0 0 0 0 0 0 0 0 0 0 0 0 0 0 0 0 0 0 0 0 0 0 0 0 0 0 0 0 0 0 0 0 0 0 0 0 0 0 0 0 0 0 0 0 0 0 0 0 0 0 0 0 0 0 0 0 0 0 0 0 0 0 0 0 0 0 0 0 0 0 0 0 0 0 0 0 0 0 0 0 0 0 0 0 0 0 0 0 0 0 0 0 0 0 0 0 0 0 0 0 0 0 0 0 0 0 0 0 0 0 0 0 0 0 0 0 0 0 0 0 0 0 0 0 0 0 0 0 0 0 0 0 0 0 0 0 0 0 0 0 0 0 0 0 0 0 0 0 0 0 0 0 0 0 0 0 0 0 0 0 0 0 0 0 0 0 0 0 0 0 0 0 0 0 0 0 0 0 0 0 0 0 0 0 0 0 0 0 0 0 0 0 0 0 0 0 0 0 0 0 0 0 0 0 0 0 0 0 0 0 0 0 0 0 0 0 0 0 0 0 0 0 0 0 0 0 0 0 0 0 0 0 0 0 0 0 0 -0.00393665 -7.58942e-19 
0.02 0.02 0.02 0.02 0.02 0.02 0.02 0.02 0.02 0.02 0.02 0.02 0.02 0.0199999 0.0199999 0.0199998 0.0199997 0.0199996 0.0199995 0.0199994 0.0199993 0.0199993 0.0199993 0.0199994 0.0199997 0.0200001 0.0200007 0.0200015 0.0200026 0.0200039 0.0200057 0.0200077 0.0200102 0.020013 0.0200162 0.0200198 0.0200239 0.0200282 0.020033 0.020038 0.0200434 0.0200489 0.0200548 0.0200608 0.020067 0.0200734 0.02008 0.0200867 0.0200937 0.0201009 0.0201084 0.0201162 0.0201244 0.0201331 0.0201422 0.0201519 0.0201621 0.0201729 0.0201843 0.0201964 0.020209 0.0202222 0.0202358 0.0202497 0.0202633 0.0202761 0.0202873 0.0202956 0.0202993 0.0202963 0.0202836 0.0202579 0.020215 0.0201501 0.0200583 0.0199346 0.019774 0.0195719 0.0193234 0.0190234 0.0186668 0.01825 0.0177714 0.0172356 0.0166551 0.0160526 0.0154633 0.0149474 0.0145789 0.0144154 0.014455 0.0146432 0.0149348 0.0153885 0.0157744 0.0159566 0.0155935 0.0160748 0.0163168 0.019723 0 0 0 0 0 0 0 0 0 0 0 0 0 0 0 0 0 0 0 0 0 0 0 0 0 0 0 0 0 0 0 0 0 0 0 0 0 0 0 0 0 0 0 0 0 0 0 0 0 0 0 0 0 0 0 0 0 0 0 0 0 0 0 0 0 0 0 0 0 0 0 0 0 0 0 0 0 0 0 0 0 0 0 0 0 0 0 0 0 0 0 0 0 0 0 0 0 0 0 0 0 0 0 0 0 0 0 0 0 0 0 0 0 0 0 0 0 0 0 0 0 0 0 0 0 0 0 0 0 0 0 0 0 0 0 0 0 0 0 0 0 0 0 0 0 0 0 0 0 0 0 0 0 0 0 0 0 0 0 0 0 0 0 0 0 0 0 0 0 0 0 0 0 0 0 0 0 0 0 0 0 0 0 0 0 0 0 0 0 0 0 0 0 0 0 0 0 0 0 0 0 0 0 0 0 0 0 0 0 0 0 0 0 0 0 0 0 0 0 0 0 0 0 0 0 0 0 0 0 0 0 0 0 0 0 0 0 0 0 0 0 0 0 0 0 0 0 0 0 0 0 0 0 0 0 0 0 0 0 0 0 0 0 0 0 0 0 0 0 0 0 0 0 0 0 0 0 0 0 0 0 0 0 0 0 0 0 0 0 0 0 0 0 0 0 0 0 0 0 0 0 0 0 0 0 0 0 0 0 0 0 0 0 0 0 0 0 0 0 0 0 0 0 0 0 0 0 0 0 0 0 0 0 0 0 0 0 0 0 0 0 0 0 0 0 0 0 0 0 0 0 0 0 0 0 0 0 0 0 0 0 0 0 0 0 0 0 0 0 0 0 0 0 0 0 0 0 0 0 0 0 0 0 0 0 0 0 0 0 0 0 0 0 0 0 0 0 0 0 0 0 0 0 0 0 0 0 0 0 0 0 0 0 0 0 0 0 0 0 0 0 0 0 0 0 0 0 0 0 0 0 0 0 0 0 0 0 0 0 0 0 0 0 0 0 0 0 0 0 0 0 0 0 0 0 0 0 0 0 0 0 0 0 0 0 0 0 0 0 0 0 0 0 0 0 0 0 0 0 0 0 0 0 0 0 0 0 0 0 0 0 0 0 0 0 0 0 0 0 0 0 0 0 0 0 0 0 0 0 0 0 0 0 0 0 0 0 0 -0.0128603 -0.00669084 -1.95156e-18 
0.02 0.02 0.02 0.02 0.02 0.02 0.02 0.02 0.02 0.02 0.02 0.02 0.0199999 0.0199999 0.0199998 0.0199997 0.0199996 0.0199994 0.0199993 0.0199992 0.019999 0.0199989 0.0199989 0.019999 0.0199991 0.0199994 0.0199999 0.0200005 0.0200014 0.0200026 0.0200041 0.0200059 0.020008 0.0200105 0.0200133 0.0200165 0.02002 0.0200238 0.020028 0.0200323 0.020037 0.0200418 0.0200468 0.0200519 0.0200571 0.0200625 0.0200679 0.0200735 0.0200792 0.0200851 0.0200912 0.0200976 0.0201042 0.0201113 0.0201188 0.0201267 0.0201351 0.0201441 0.0201536 0.0201637 0.0201743 0.0201856 0.0201972 0.0202091 0.0202209 0.020232 0.0202415 0.0202483 0.0202507 0.0202465 0.0202329 0.0202065 0.020163 0.0200979 0.020006 0.0198825 0.0197223 0.0195209 0.0192734 0.0189745 0.0186196 0.0182044 0.0177279 0.0171943 0.0166172 0.0160201 0.0154359 0.0149106 0.0145037 0.0142591 0.0142103 0.0143345 0.0145872 0.0149114 0.0152617 0.0154168 0.0151977 0.0143455 0.0135284 0.0129361 0.0143601 0 0 0 0 0 0 0 0 0 0 0 0 0 0 0 0 0 0 0 0 0 0 0 0 0 0 0 0 0 0 0 0 0 0 0 0 0 0 0 0 0 0 0 0 0 0 0 0 0 0 0 0 0 0 0 0 0 0 0 0 0 0 0 0 0 0 0 0 0 0 0 0 0 0 0 0 0 0 0 0 0 0 0 0 0 0 0 0 0 0 0 0 0 0 0 0 0 0 0 0 0 0 0 0 0 0 0 0 0 0 0 0 0 0 0 0 0 0 0 0 0 0 0 0 0 0 0 0 0 0 0 0 0 0 0 0 0 0 0 0 0 0 0 0 0 0 0 0 0 0 0 0 0 0 0 0 0 0 0 0 0 0 0 0 0 0 0 0 0 0 0 0 0 0 0 0 0 0 0 0 0 0 0 0 0 0 0 0 0 0 0 0 0 0 0 0 0 0 0 0 0 0 0 0 0 0 0 0 0 0 0 0 0 0 0 0 0 0 0 0 0 0 0 0 0 0 0 0 0 0 0 0 0 0 0 0 0 0 0 0 0 0 0 0 0 0 0 0 0 0 0 0 0 0 0 0 0 0 0 0 0 0 0 0 0 0 0 0 0 0 0 0 0 0 0 0 0 0 0 0 0 0 0 0 0 0 0 0 0 0 0 0 0 0 0 0 0 0 0 0 0 0 0 0 0 0 0 0 0 0 0 0 0 0 0 0 0 0 0 0 0 0 0 0 0 0 0 0 0 0 0 0 0 0 0 0 0 0 0 0 0 0 0 0 0 0 0 0 0 0 0 0 0 0 0 0 0 0 0 0 0 0 0 0 0 0 0 0 0 0 0 0 0 0 0 0 0 0 0 0 0 0 0 0 0 0 0 0 0 0 0 0 0 0 0 0 0 0 0 0 0 0 0 0 0 0 0 0 0 0 0 0 0 0 0 0 0 0 0 0 0 0 0 0 0 0 0 0 0 0 0 0 0 0 0 0 0 0 0 0 0 0 0 0 0 0 0 0 0 0 0 0 0 0 0 0 0 0 0 0 0 0 0 0 0 0 0 0 0 0 0 0 0 0 0 0 0 0 0 0 0 0 0 0 0 0 0 0 0 0 0 0 0 0 0 0 0 0 0 0 0 0 0 0 0 0 0 0 0 0 0 0 0 0 -0.028969 -0.0277598 -0.0228231 -0.0163248 -0.00889691 -8.67362e-19 
0.02 0.02 0.02 0.02 0.02 0.02 0.02 0.02 0.02 0.02 0.02 0.0199999 0.0199999 0.0199998 0.0199997 0.0199996 0.0199994 0.0199993 0.0199991 0.0199989 0.0199987 0.0199986 0.0199985 0.0199984 0.0199985 0.0199986 0.0199989 0.0199994 0.0200001 0.0200011 0.0200023 0.0200037 0.0200055 0.0200075 0.0200099 0.0200126 0.0200155 0.0200187 0.0200221 0.0200257 0.0200295 0.0200335 0.0200375 0.0200415 0.0200457 0.0200498 0.020054 0.0200582 0.0200625 0.0200668 0.0200713 0.020076 0.0200809 0.020086 0.0200916 0.0200975 0.0201038 0.0201106 0.0201178 0.0201256 0.0201338 0.0201425 0.0201515 0.0201608 0.0201699 0.0201783 0.0201853 0.0201895 0.0201896 0.0201832 0.0201677 0.0201396 0.0200947 0.0200285 0.019936 0.0198123 0.0196527 0.0194524 0.0192067 0.0189106 0.0185589 0.0181479 0.0176762 0.0171481 0.016576 0.0159823 0.0153974 0.0148573 0.0144044 0.0140858 0.0139288 0.0139498 0.0141208 0.0143681 0.0145826 0.0146019 0.0142757 0.0130488 0.0110368 0.0073952 0.00491413 0.00413218 0 0 0 0 0 0 0 0 0 0 0 0 0 0 0 0 0 0 0 0 0 0 0 0 0 0 0 0 0 0 0 0 0 0 0 0 0 0 0 0 0 0 0 0 0 0 0 0 0 0 0 0 0 0 0 0 0 0 0 0 0 0 0 0 0 0 0 0 0 0 0 0 0 0 0 0 0 0 0 0 0 0 0 0 0 0 0 0 0 0 0 0 0 0 0 0 0 0 0 0 0 0 0 0 0 0 0 0 0 0 0 0 0 0 0 0 0 0 0 0 0 0 0 0 0 0 0 0 0 0 0 0 0 0 0 0 0 0 0 0 0 0 0 0 0 0 0 0 0 0 0 0 0 0 0 0 0 0 0 0 0 0 0 0 0 0 0 0 0 0 0 0 0 0 0 0 0 0 0 0 0 0 0 0 0 0 0 0 0 0 0 0 0 0 0 0 0 0 0 0 0 0 0 0 0 0 0 0 0 0 0 0 0 0 0 0 0 0 0 0 0 0 0 0 0 0 0 0 0 0 0 0 0 0 0 0 0 0 0 0 0 0 0 0 0 0 0 0 0 0 0 0 0 0 0 0 0 0 0 0 0 0 0 0 0 0 0 0 0 0 0 0 0 0 0 0 0 0 0 0 0 0 0 0 0 0 0 0 0 0 0 0 0 0 0 0 0 0 0 0 0 0 0 0 0 0 0 0 0 0 0 0 0 0 0 0 0 0 0 0 0 0 0 0 0 0 0 0 0 0 0 0 0 0 0 0 0 0 0 0 0 0 0 0 0 0 0 0 0 0 0 0 0 0 0 0 0 0 0 0 0 0 0 0 0 0 0 0 0 0 0 0 0 0 0 0 0 0 0 0 0 0 0 0 0 0 0 0 0 -0.0571182 -0.0587699 -0.0606282 -0.0618455 -0.0620803 -0.0615482 -0.0605288 -0.0593289 -0.0579929 -0.0565822 -0.055213 -0.0538869 -0.0526087 -0.0513921 -0.0502423 -0.0492704 -0.0528671 0 0 0 0 0 0 0 0 0 0 0 0 0 0 0 0 0 -0.0364785 -0.0385392 -0.0395026 -0.0401391 -0.040615 -0.040965 -0.0411912 -0.0412578 -0.0411163 -0.0409476 -0.0408731 -0.0408278 -0.0407868 -0.0407409 -0.0406891 -0.0406325 -0.0405738 -0.0405174 -0.0404684 -0.0404329 -0.0404092 -0.0403227 -0.0400913 -0.0399695 -0.0399047 -0.039878 -0.0398901 -0.0399436 -0.0400417 -0.0401893 -0.040394 -0.0406623 -0.0410497 -0.0422068 -0.0483649 0 0 0 0 0 0 0 0 0 0 0 0 0 0 -0.0400173 -0.0434092 -0.0446807 -0.0452646 -0.045486 -0.0455097 -0.0453924 -0.0452347 -0.0451302 -0.0449985 -0.0448402 -0.0446575 -0.044454 -0.0442333 -0.043999 -0.0437543 -0.0435022 -0.0432456 -0.0429868 -0.042728 -0.0424712 -0.0422183 -0.0419711 -0.0417313 -0.0415007 -0.0412806 -0.0410724 -0.040877 -0.0406948 -0.0405259 -0.0403694 -0.0402238 -0.0400856 -0.0399479 -0.0397924 -0.0395452 -0.0390446 -0.0383617 -0.0375692 -0.0364747 -0.0348285 -0.0320967 -0.0286599 -0.0237844 -0.0176428 -0.0100418 1.73472e-18 
0.02 0.02 0.02 0.02 0.02 0.02 0.02 0.02 0.02 0.0199999 0.0199999 0.0199999 0.0199998 0.0199997 0.0199996 0.0199994 0.0199993 0.0199991 0.0199989 0.0199986 0.0199984 0.0199982 0.019998 0.0199978 0.0199977 0.0199978 0.0199979 0.0199982 0.0199986 0.0199993 0.0200002 0.0200013 0.0200026 0.0200042 0.020006 0.0200081 0.0200104 0.0200129 0.0200155 0.0200183 0.0200211 0.0200241 0.020027 0.0200299 0.0200327 0.0200355 0.0200382 0.0200409 0.0200435 0.0200461 0.0200487 0.0200515 0.0200543 0.0200574 0.0200607 0.0200643 0.0200683 0.0200725 0.0200771 0.0200821 0.0200873 0.0200929 0.0200987 0.0201046 0.0201102 0.020115 0.0201183 0.020119 0.0201154 0.0201057 0.0200869 0.0200559 0.0200087 0.0199407 0.0198471 0.0197233 0.0195646 0.0193664 0.0191241 0.0188325 0.0184869 0.0180831 0.0176196 0.0170991 0.0165318 0.0159371 0.0153411 0.0147743 0.0142693 0.0138638 0.0135967 0.013487 0.0135223 0.0136363 0.0137302 0.0136705 0.0131735 0.0118881 0.00932047 0.00569426 0.000388649 -0.00162314 0 0 0 0 0 0 0 0 0 0 0 0 0 0 0 0 0 0 0 0 0 0 0 0 0 0 0 0 0 0 0 0 0 0 0 0 0 0 0 0 0 0 0 0 0 0 0 0 0 0 0 0 0 0 0 0 0 0 0 0 0 0 0 0 0 0 0 0 0 0 0 0 0 0 0 0 0 0 0 0 0 0 0 0 0 0 0 0 0 0 0 0 0 0 0 0 0 0 0 0 0 0 0 0 0 0 0 0 0 0 0 0 0 0 0 0 0 0 0 0 0 0 0 0 0 0 0 0 0 0 0 0 0 0 0 0 0 0 0 0 0 0 0 0 0 0 0 0 0 0 0 0 0 0 0 0 0 0 0 0 0 0 0 0 0 0 0 0 0 0 0 0 0 0 0 0 0 0 0 0 0 0 0 0 0 0 0 0 0 0 0 0 0 0 0 0 0 0 0 0 0 0 0 0 0 0 0 0 0 0 0 0 0 0 0 0 0 0 0 0 0 0 0 0 0 0 0 0 0 0 0 0 0 0 0 0 0 0 0 0 0 0 0 0 0 0 0 0 0 0 0 0 0 0 0 0 0 0 0 0 0 0 0 0 0 0 0 0 0 0 0 0 0 0 0 0 0 0 0 0 0 0 0 0 0 0 0 0 0 0 0 0 0 0 0 0 0 0 0 0 0 0 0 0 0 0 0 0 0 0 0 0 0 0 0 0 0 0 0 0 0 0 0 0 0 0 0 0 0 0 0 0 0 0 0 0 0 0 0 0 0 0 0 0 0 0 0 0 0 0 0 0 0 0 0 0 0 0 0 0 0 0 0 0 0 0 0 0 0 0 0 0 0 0 0 0 0 0 0 0 0 0 0 0 0 0 -0.0476674 -0.0488134 -0.0497081 -0.0559041 -0.0587802 -0.0604456 -0.0615298 -0.0615693 -0.0611517 -0.0602514 -0.0590912 -0.0578443 -0.0564988 -0.0551592 -0.0538663 -0.0526123 -0.051415 -0.0502763 -0.0492637 -0.0490891 -0.0492945 -0.0484418 -0.0470795 -0.0458629 -0.0449581 -0.0441656 -0.0434401 -0.042799 -0.0422269 -0.041731 -0.0413153 -0.04097 -0.0406886 -0.040467 -0.04029 -0.0400479 -0.0395399 -0.0389749 -0.0392475 -0.0397345 -0.0402164 -0.0406321 -0.0409554 -0.0411545 -0.0412129 -0.0411379 -0.0410334 -0.04095 -0.0408837 -0.0408239 -0.0407626 -0.0406978 -0.0406297 -0.0405603 -0.0404929 -0.0404315 -0.040378 -0.04032 -0.0402238 -0.0400706 -0.0399618 -0.0398951 -0.0398667 -0.039878 -0.0399314 -0.0400297 -0.0401783 -0.0403867 -0.0406743 -0.0411367 -0.0420315 -0.0436388 -0.0436484 -0.0428421 -0.0428834 -0.0430553 -0.0433031 -0.0435971 -0.0439093 -0.0442199 -0.0445196 -0.0448063 -0.0450815 -0.0453417 -0.045484 -0.0452519 -0.0442922 -0.0445277 -0.044942 -0.0453226 -0.0454836 -0.0454784 -0.0453991 -0.0452314 -0.0451283 -0.0449984 -0.0448422 -0.0446619 -0.0444605 -0.044242 -0.0440097 -0.0437669 -0.0435166 -0.0432616 -0.0430043 -0.0427468 -0.0424914 -0.0422397 -0.0419937 -0.0417551 -0.0415256 -0.0413066 -0.0410995 -0.040905 -0.0407238 -0.0405558 -0.0404006 -0.0402562 -0.0401187 -0.0399781 -0.0398052 -0.0395393 -0.0391068 -0.0385082 -0.037716 -0.0365727 -0.0348618 -0.0323117 -0.0288845 -0.0242908 -0.0184213 -0.0107279 -8.67362e-19 
0.02 0.02 0.02 0.02 0.02 0.02 0.02 0.02 0.0199999 0.0199999 0.0199999 0.0199998 0.0199997 0.0199996 0.0199995 0.0199993 0.0199991 0.0199989 0.0199986 0.0199983 0.019998 0.0199977 0.0199974 0.0199971 0.0199969 0.0199968 0.0199967 0.0199968 0.019997 0.0199973 0.0199978 0.0199985 0.0199994 0.0200005 0.0200018 0.0200032 0.0200048 0.0200065 0.0200083 0.0200101 0.020012 0.0200138 0.0200155 0.0200171 0.0200185 0.0200198 0.0200209 0.0200218 0.0200226 0.0200232 0.0200238 0.0200243 0.0200249 0.0200256 0.0200264 0.0200274 0.0200285 0.0200299 0.0200315 0.0200333 0.0200351 0.020037 0.0200389 0.0200406 0.0200418 0.020042 0.0200406 0.0200364 0.020028 0.0200134 0.0199901 0.019955 0.0199043 0.0198338 0.0197391 0.0196156 0.0194588 0.0192642 0.0190272 0.0187426 0.0184054 0.018011 0.0175572 0.0170454 0.0164826 0.0158832 0.0152683 0.0146641 0.0141002 0.013609 0.0132245 0.0129718 0.012848 0.0128057 0.0127442 0.0125221 0.0119259 0.0105658 0.00808983 0.00402882 -0.00116664 -0.00689175 -0.0122532 0 0 0 0 0 0 0 0 0 0 0 0 0 0 0 0 0 0 0 0 0 0 0 0 0 0 0 0 0 0 0 0 0 0 0 0 0 0 0 0 0 0 0 0 0 0 0 0 0 0 0 0 0 0 0 0 0 0 0 0 0 0 0 0 0 0 0 0 0 0 0 0 0 0 0 0 0 0 0 0 0 0 0 0 0 0 0 0 0 0 0 0 0 0 0 0 0 0 0 0 0 0 0 0 0 0 0 0 0 0 0 0 0 0 0 0 0 0 0 0 0 0 0 0 0 0 0 0 0 0 0 0 0 0 0 0 0 0 0 0 0 0 0 0 0 0 0 0 0 0 0 0 0 0 0 0 0 0 0 0 0 0 0 0 0 0 0 0 0 0 0 0 0 0 0 0 0 0 0 0 0 0 0 0 0 0 0 0 0 0 0 0 0 0 0 0 0 0 0 0 0 0 0 0 0 0 0 0 0 0 0 0 0 0 0 0 0 0 0 0 0 0 0 0 0 0 0 0 0 0 0 0 0 0 0 0 0 0 0 0 0 0 0 0 0 0 0 0 0 0 0 0 0 0 0 0 0 0 0 0 0 0 0 0 0 0 0 0 0 0 0 0 0 0 0 0 0 0 0 0 0 0 0 0 0 0 0 0 0 0 0 0 0 0 0 0 0 0 0 0 0 0 0 0 0 0 0 0 0 0 0 0 0 0 0 0 0 0 0 0 0 0 0 0 0 0 0 0 0 0 0 0 0 0 0 0 0 0 0 0 0 0 0 0 0 0 0 0 0 0 0 0 0 0 0 0 0 0 0 0 0 0 0 0 0 0 0 0 0 0 0 0 0 0 0 0 0 0 0 0 0 0 0 0 -0.0406331 -0.0450517 -0.0498998 -0.0525077 -0.0558941 -0.0581781 -0.0596155 -0.0606535 -0.0607364 -0.0603332 -0.05963 -0.0586012 -0.0574592 -0.0562305 -0.0549669 -0.053735 -0.0525311 -0.0513739 -0.0502614 -0.0492732 -0.0486508 -0.0485548 -0.0480523 -0.0470284 -0.046003 -0.0450905 -0.0442919 -0.0435612 -0.042919 -0.0423568 -0.0418674 -0.0414563 -0.0411115 -0.0408191 -0.0405619 -0.0403041 -0.0400006 -0.0396521 -0.0394329 -0.039595 -0.0399388 -0.0403239 -0.0406723 -0.040944 -0.041105 -0.0411486 -0.0411008 -0.0410235 -0.040949 -0.040881 -0.0408174 -0.0407535 -0.0406874 -0.0406194 -0.040551 -0.0404846 -0.0404224 -0.0403617 -0.0402898 -0.0401923 -0.0400737 -0.0399759 -0.0399127 -0.0398873 -0.0399018 -0.0399582 -0.0400592 -0.0402103 -0.0404278 -0.0407616 -0.0413202 -0.0421346 -0.0429924 -0.0431355 -0.0428987 -0.0429238 -0.0430831 -0.0433241 -0.0436136 -0.0439244 -0.044237 -0.0445413 -0.0448333 -0.0451075 -0.0453312 -0.0453902 -0.0451871 -0.0447964 -0.0448989 -0.045128 -0.045358 -0.0454782 -0.045434 -0.0453584 -0.0452193 -0.0451169 -0.0449873 -0.0448318 -0.0446526 -0.0444528 -0.0442362 -0.0440061 -0.0437656 -0.0435177 -0.0432651 -0.0430101 -0.0427551 -0.042502 -0.0422527 -0.0420091 -0.0417728 -0.0415455 -0.0413286 -0.0411232 -0.0409303 -0.0407504 -0.0405833 -0.0404285 -0.0402835 -0.0401426 -0.0399903 -0.039795 -0.0395103 -0.0390916 -0.0385113 -0.0377046 -0.0365315 -0.0348113 -0.0323545 -0.0290381 -0.0246639 -0.0189544 -0.0111729 1.0842e-18 
0.02 0.02 0.02 0.02 0.02 0.02 0.02 0.0199999 0.0199999 0.0199999 0.0199998 0.0199997 0.0199996 0.0199995 0.0199993 0.0199991 0.0199989 0.0199986 0.0199983 0.019998 0.0199976 0.0199972 0.0199968 0.0199964 0.019996 0.0199957 0.0199954 0.0199952 0.0199951 0.0199952 0.0199953 0.0199956 0.019996 0.0199965 0.0199972 0.0199979 0.0199988 0.0199997 0.0200006 0.0200014 0.0200021 0.0200028 0.0200032 0.0200034 0.0200033 0.0200029 0.0200023 0.0200013 0.02 0.0199985 0.0199968 0.0199949 0.019993 0.0199909 0.0199889 0.0199869 0.019985 0.0199831 0.0199812 0.0199793 0.0199773 0.019975 0.0199724 0.0199692 0.0199651 0.0199597 0.0199524 0.019942 0.0199274 0.0199066 0.0198774 0.0198369 0.0197818 0.0197084 0.0196125 0.01949 0.0193364 0.0191471 0.0189173 0.0186417 0.0183148 0.0179317 0.0174889 0.0169856 0.0164256 0.0158187 0.015181 0.0145342 0.0139047 0.0133232 0.0128207 0.0124217 0.0121303 0.0119097 0.0116722 0.0112648 0.0104698 0.0089994 0.00652582 0.00251357 -0.00295801 -0.0110296 -0.020538 -0.0222534 0 0 0 0 0 0 0 0 0 0 0 0 0 0 0 0 0 0 0 0 0 0 0 0 0 0 0 0 0 0 0 0 0 0 0 0 0 0 0 0 0 0 0 0 0 0 0 0 0 0 0 0 0 0 0 0 0 0 0 0 0 0 0 0 0 0 0 0 0 0 0 0 0 0 0 0 0 0 0 0 0 0 0 0 0 0 0 0 0 0 0 0 0 0 0 0 0 0 0 0 0 0 0 0 0 0 0 0 0 0 0 0 0 0 0 0 0 0 0 0 0 0 0 0 0 0 0 0 0 0 0 0 0 0 0 0 0 0 0 0 0 0 0 0 0 0 0 0 0 0 0 0 0 0 0 0 0 0 0 0 0 0 0 0 0 0 0 0 0 0 0 0 0 0 0 0 0 0 0 0 0 0 0 0 0 0 0 0 0 0 0 0 0 0 0 0 0 0 0 0 0 0 0 0 0 0 -0.0632072 -0.0602676 -0.0591009 -0.0624876 -0.0669976 -0.0697021 -0.0710057 -0.0711762 -0.0712827 -0.0724632 -0.0803997 0 0 0 0 0 0 0 0 0 0 0 0 0 0 0 0 0 0 0 0 0 0 0 0 0 0 0 0 0 0 0 0 0 0 0 0 0 0 0 0 0 0 0 0 0 0 0 0 0 0 0 0 0 0 0 0 0 0 0 0 0 0 0 0 0 0 0 0 0 0 0 0 0 0 0 0 0 0 0 0 0 0 0 0 0 0 0 0 0 0 0 0 0 0 0 0 0 0 0 0 0 0 0 0 0 0 0 0 0 0 0 0 0 0 0 0 0 0 0 0 0 0 0 0 0 0 0 0 0 0 0 0 0 0 0 0 0 0 0 0 0 0 0 0 0 0 0 0 0 0 0 0 0 0 0 0 0 0 0 0 0 0 0 0 0 -0.0382374 -0.0524974 -0.0481392 -0.0487067 -0.0518191 -0.0551669 -0.0569919 -0.0584066 -0.0593152 -0.0595397 -0.0592369 -0.0587023 -0.0578747 -0.0568919 -0.0557998 -0.0546539 -0.0535118 -0.0523792 -0.0512776 -0.0502079 -0.0492347 -0.048468 -0.0479863 -0.0475455 -0.0468792 -0.0460548 -0.0452197 -0.0444375 -0.0437262 -0.0430876 -0.0425245 -0.0420349 -0.0416141 -0.0412529 -0.0409322 -0.040626 -0.0403125 -0.040005 -0.039765 -0.0396953 -0.0398498 -0.0401311 -0.04045 -0.0407372 -0.0409531 -0.0410731 -0.0410978 -0.0410563 -0.0409882 -0.0409179 -0.0408501 -0.0407854 -0.0407212 -0.0406561 -0.0405904 -0.0405252 -0.0404622 -0.0404014 -0.0403383 -0.040264 -0.0401733 -0.040075 -0.039992 -0.0399387 -0.0399215 -0.0399433 -0.0400061 -0.0401126 -0.0402691 -0.0404984 -0.0408578 -0.0414079 -0.0420911 -0.0426832 -0.0429011 -0.0429057 -0.0429816 -0.0431495 -0.0433874 -0.0436699 -0.0439723 -0.0442781 -0.0445786 -0.0448663 -0.045127 -0.045317 -0.0453642 -0.0452593 -0.0450881 -0.0451309 -0.0452618 -0.0453822 -0.0454345 -0.0453807 -0.0453051 -0.0452028 -0.0451009 -0.0449716 -0.0448165 -0.0446384 -0.0444405 -0.0442262 -0.0439987 -0.0437612 -0.0435165 -0.0432672 -0.0430156 -0.0427641 -0.0425144 -0.0422686 -0.0420284 -0.0417954 -0.0415712 -0.0413571 -0.0411543 -0.0409635 -0.0407851 -0.0406191 -0.0404643 -0.0403173 -0.0401696 -0.0400034 -0.039789 -0.0394899 -0.0390698 -0.0384867 -0.0376637 -0.0364754 -0.0347692 -0.0323901 -0.0291967 -0.0249812 -0.0193554 -0.0114839 -6.50521e-19 
0.02 0.02 0.02 0.02 0.02 0.02 0.0199999 0.0199999 0.0199999 0.0199998 0.0199997 0.0199996 0.0199995 0.0199994 0.0199992 0.019999 0.0199987 0.0199984 0.019998 0.0199976 0.0199971 0.0199966 0.0199961 0.0199956 0.0199951 0.0199945 0.019994 0.0199936 0.0199932 0.0199929 0.0199926 0.0199925 0.0199924 0.0199924 0.0199924 0.0199925 0.0199925 0.0199926 0.0199925 0.0199923 0.0199919 0.0199913 0.0199903 0.019989 0.0199873 0.0199852 0.0199827 0.0199797 0.0199763 0.0199725 0.0199684 0.0199638 0.019959 0.019954 0.0199489 0.0199435 0.0199381 0.0199326 0.0199268 0.0199208 0.0199143 0.0199073 0.0198995 0.0198907 0.0198806 0.0198687 0.0198543 0.0198367 0.0198145 0.0197862 0.0197498 0.0197027 0.0196424 0.0195654 0.0194685 0.0193475 0.0191983 0.0190159 0.0187951 0.0185301 0.0182148 0.0178433 0.017411 0.0169156 0.016358 0.0157438 0.0150843 0.0143966 0.0137036 0.0130318 0.0124093 0.0118589 0.0113871 0.0109692 0.0105281 0.0099198 0.0089246 0.00726434 0.00460462 0.000625604 -0.005097 -0.0127187 -0.0217832 -0.0328748 0 0 0 0 0 0 0 0 0 0 0 0 0 0 0 0 0 0 0 0 0 0 0 0 0 0 0 0 0 0 0 0 0 0 0 0 0 0 0 0 0 0 0 0 0 0 0 0 0 0 0 0 0 0 0 0 0 0 0 0 0 0 0 0 0 0 0 0 0 0 0 0 0 0 0 0 0 0 0 0 0 0 0 0 0 0 0 0 0 0 0 0 0 0 0 0 0 0 0 0 0 0 0 0 0 0 0 0 0 0 0 0 0 0 0 0 0 0 0 0 0 0 0 0 0 0 0 0 0 0 0 0 0 0 0 0 0 0 0 0 0 0 0 0 0 0 0 0 0 0 0 0 0 0 0 0 0 0 0 0 0 0 0 0 0 0 0 0 0 0 0 0 0 0 0 0 0 0 0 0 0 0 0 0 0 0 0 0 0 0 0 0 0 0 0 0 0 0 0 0 0 0 0 0 0 0 -0.0492952 -0.0582119 -0.059311 -0.0626408 -0.0671372 -0.0700713 -0.0714562 -0.0721958 -0.0723182 -0.0733577 -0.0762245 -0.0798348 -0.0819361 -0.0840062 -0.0855653 -0.093915 -0.0923429 0 0 0 0 0 0 0 0 0 0 0 0 0 0 0 0 0 0 0 0 0 0 0 0 0 0 0 0 0 0 0 0 0 0 0 0 0 0 0 0 0 0 0 0 0 0 0 0 0 0 0 0 0 0 0 0 0 0 0 0 0 0 0 0 0 0 0 0 0 0 0 0 0 0 0 0 0 0 0 0 0 0 0 0 0 0 0 0 0 0 0 0 0 0 0 0 0 0 0 0 0 0 0 0 0 0 0 0 0 0 0 0 0 0 0 0 0 0 0 0 0 0 0 0 0 0 0 0 0 0 0 0 0 0 0 0 0 0 0 0 0 0 0 0 0 0 0 0 0 0 0 0 0 0 0 0 0 0 -0.0444808 -0.0395902 -0.0445743 -0.0472245 -0.0490065 -0.0516534 -0.0542367 -0.0557466 -0.0569544 -0.0577879 -0.0581334 -0.0579501 -0.0575779 -0.0569657 -0.0561719 -0.0552333 -0.054232 -0.0532032 -0.052161 -0.0511303 -0.0501209 -0.0491733 -0.048348 -0.0477074 -0.0472059 -0.0466533 -0.0459845 -0.045268 -0.0445614 -0.0438952 -0.0432817 -0.0427286 -0.0422386 -0.0418058 -0.0414224 -0.0410712 -0.0407321 -0.040403 -0.0401212 -0.0399534 -0.0399498 -0.040102 -0.0403414 -0.0406013 -0.0408263 -0.040983 -0.041058 -0.0410581 -0.0410108 -0.0409418 -0.0408701 -0.0408005 -0.0407339 -0.0406687 -0.0406043 -0.0405406 -0.0404788 -0.0404193 -0.040361 -0.0402998 -0.04023 -0.040151 -0.0400714 -0.0400065 -0.0399684 -0.0399641 -0.0399973 -0.04007 -0.0401848 -0.0403492 -0.0405864 -0.0409399 -0.0414363 -0.042009 -0.0425006 -0.0427807 -0.0429214 -0.043062 -0.0432503 -0.0434876 -0.0437596 -0.0440485 -0.0443412 -0.0446309 -0.0449079 -0.0451501 -0.0453192 -0.0453819 -0.0453446 -0.0452707 -0.0452764 -0.045327 -0.0453727 -0.045373 -0.0453278 -0.0452656 -0.0451839 -0.0450819 -0.0449526 -0.0447983 -0.0446216 -0.0444259 -0.0442144 -0.0439902 -0.0437564 -0.0435157 -0.0432706 -0.0430235 -0.0427764 -0.0425313 -0.04229 -0.0420541 -0.0418253 -0.0416051 -0.0413946 -0.0411949 -0.0410067 -0.0408303 -0.0406652 -0.0405097 -0.0403591 -0.0402031 -0.0400232 -0.0397932 -0.0394823 -0.0390553 -0.0384633 -0.0376275 -0.0364357 -0.034756 -0.0324508 -0.029367 -0.0252625 -0.0196745 -0.0117158 -2.81893e-18 