# vtk DataFile Version 2.0
iteration 729
ASCII

DATASET STRUCTURED_POINTS
DIMENSIONS 621 64 1
ORIGIN 0 0 0
SPACING 0.00161031 0.00161031 0.00161031

POINT_DATA 39744
SCALARS P float 1
LOOKUP_TABLE default
0 0 0 0 0 0 0 0 0 0 0 0 0 0 0 0 0 0 0 0 0 0 0 0 0 0 0 0 0 0 0 0 0 0 0 0 0 0 0 0 0 0 0 0 0 0 0 0 0 0 0 0 0 0 0 0 0 0 0 0 0 0 0 0 0 0 0 0 0 0 0 0 0 0 0 0 0 0 0 0 0 0 0 0 0 0 0 0 0 0 0 0 0 0 0 0 0 0 0 0 0 0 0 0 0 0 0 0 0 0 0 0 0 0 0 0 0 0 0 0 0 0 0 0 0 0 0 0 0 0 0 0 0 0 0 0 0 0 0 0 0 0 0 0 0 0 0 0 0 0 0 0 0 0 0 0 0 0 0 0 0 0 0 0 0 0 0 0 0 0 0 0 0 0 0 0 0 0 0 0 0 0 0 0 0 0 0 0 0 0 0 0 0 0 0 0 0 0 0 0 0 0 0 0 0 0 0 0 0 0 0 0 0 0 0 0 0 0 0 0 0 0 0 0 0 0 0 0 0 0 0 0 0 0 0 0 0 0 0 0 0 0 0 0 0 0 0 0 0 0 0 0 0 0 0 0 0 0 0 0 0 0 0 0 0 0 0 0 0 0 0 0 0 0 0 0 0 0 0 0 0 0 0 0 0 0 0 0 0 0 0 0 0 0 0 0 0 0 0 0 0 0 0 0 0 0 0 0 0 0 0 0 0 0 0 0 0 0 0 0 0 0 0 0 0 0 0 0 0 0 0 0 0 0 0 0 0 0 0 0 0 0 0 0 0 0 0 0 0 0 0 0 0 0 0 0 0 0 0 0 0 0 0 0 0 0 0 0 0 0 0 0 0 0 0 0 0 0 0 0 0 0 0 0 0 0 0 0 0 0 0 0 0 0 0 0 0 0 0 0 0 0 0 0 0 0 0 0 0 0 0 0 0 0 0 0 0 0 0 0 0 0 0 0 0 0 0 0 0 0 0 0 0 0 0 0 0 0 0 0 0 0 0 0 0 0 0 0 0 0 0 0 0 0 0 0 0 0 0 0 0 0 0 0 0 0 0 0 0 0 0 0 0 0 0 0 0 0 0 0 0 0 0 0 0 0 0 0 0 0 0 0 0 0 0 0 0 0 0 0 0 0 0 0 0 0 0 0 0 0 0 0 0 0 0 0 0 0 0 0 0 0 0 0 0 0 0 0 0 0 0 0 0 0 0 0 0 0 0 0 0 0 0 0 0 0 0 0 0 0 0 0 0 0 0 0 0 0 0 0 0 0 0 0 0 0 0 0 0 0 0 0 0 0 0 0 0 0 0 0 0 0 0 0 0 0 0 0 0 0 0 0 0 0 0 0 0 0 0 0 0 0 0 0 0 0 0 0 0 0 0 0 0 0 0 0 0 0 0 0 0 
0.02 0.02 0.02 0.02 0.02 0.02 0.02 0.02 0.02 0.02 0.02 0.02 0.02 0.02 0.0199999 0.0199999 0.0199999 0.0199999 0.0199999 0.0199999 0.0199998 0.0199998 0.0199998 0.0199997 0.0199997 0.0199996 0.0199995 0.0199995 0.0199994 0.0199993 0.0199992 0.019999 0.0199989 0.0199987 0.0199985 0.0199983 0.0199981 0.0199978 0.0199975 0.0199972 0.0199968 0.0199964 0.0199959 0.0199954 0.0199948 0.0199942 0.0199935 0.0199927 0.0199918 0.0199909 0.0199898 0.0199886 0.0199873 0.0199859 0.0199844 0.0199827 0.0199808 0.0199787 0.0199765 0.019974 0.0199714 0.0199685 0.0199653 0.019962 0.0199583 0.0199544 0.0199503 0.0199458 0.0199411 0.0199361 0.0199309 0.0199255 0.0199198 0.0199139 0.0199079 0.0199017 0.0198955 0.0198893 0.0198831 0.0198771 0.0198712 0.0198657 0.0198607 0.0198562 0.0198525 0.0198496 0.0198478 0.0198472 0.0198482 0.0198507 0.0198553 0.019862 0.0198712 0.0198832 0.0198983 0.0199169 0.0199393 0.0199659 0.0199971 0.0200334 0.0200752 0.0201229 0.020177 0.0202379 0.020306 0.0203817 0.0204651 0.0205563 0.0206555 0.0207622 0.0208762 0.0209969 0.0211235 0.0212548 0.02139 0.0215275 0.0216657 0.0217984 0.0219125 0.0220265 0.0221383 0.0222481 0.0223536 0.0224524 0.0225434 0.0226253 0.0226966 0.022756 0.0228021 0.0228328 0.0228462 0.0228398 0.0228111 0.0227572 0.022675 0.0225611 0.0224116 0.0222222 0.0219878 0.0217046 0.021394 0.0212117 0.0225446 0 0 0 0 0 0 0 0 0 0 0 0 0 0 0 0 0 0 0 0 0 0 0 0 0 0 0 0 0 0 0 0 0 0 0 0 0 0 0 0 0 0 0 0 0 0 0 0 0 0 0 0 0 0 0 0 0 0 0 0 0 0 0 0 0 0 0 0 0 0 0 0 0 0 0 0 0 0 0 0 0 0 0 0 0 0 0 0 0 0 0 0 0 0 0 0 0 0 0 0 0 0 0 0 0 0 0 0 0 0 0 0 0 0 0 0 0 0 0 0 0 0 0 0 0 0 0 0 0 0 0 0 0 0 0 0 0 0 0 0 0 0 0 0 0 0 0 0 0 0 0 0 0 0 0 0 0 0 0 0 0 0 0 0 0 0 0 0 0 0 0 0 0 0 0 0 0 0 0 0 0 0 0 0 0 0 0 0 0 0 0 0 0 0 0 0 0 0 0 0 0 0 0 0 0 0 0 0 0 0 0 0 0 0 0 0 0 0 0 0 0 0 0 0 0 0 0 0 0 0 0 0 0 0 0 0 0 0 0 0 0 0 0 0 0 0 0 0 0 0 0 0 0 0 0 0 0 0 0 0 0 0 0 0 0 0 0 0 0 0 0 0 0 0 0 0 0 0 0 0 0 0 0 0 0 0 0 0 0 0 0 0 0 0 0 0 0 0 0 0 0 0 0 0 0 0 0 0 0 0 0 0 0 0 0 0 0 0 0 0 0 0 0 0 0 0 0 0 0 0 0 0 0 0 0 0 0 0 0 0 0 0 0 0 0 0 0 0 0 0 0 0 0 0 0 0 0 0 0 0 0 0 0 0 0 0 0 0 0 0 0 0 0 0 0 0 0 0 0 0 0 0 0 0 0 0 0 0 0 0 0 0 0 0 0 0 0 0 0 0 0 0 0 0 0 0 0 0 0 0 0 0 0 0 0 0 0 0 0 0 0 0 0 0 0 0 0 0 0 0 0 0 0 0 0 0 0 0 0 0 0 0 0 0 0 0 0 0 0 0 0 0 0 0 0 0 0 0 0 0 0 0 0 0 0 0 0 0 0 0 0 0 0 0 0 0 0 0 
0.02 0.02 0.02 0.02 0.02 0.02 0.02 0.02 0.02 0.02 0.02 0.02 0.02 0.02 0.02 0.0199999 0.0199999 0.0199999 0.0199999 0.0199999 0.0199998 0.0199998 0.0199998 0.0199997 0.0199997 0.0199996 0.0199996 0.0199995 0.0199994 0.0199993 0.0199992 0.0199991 0.0199989 0.0199988 0.0199986 0.0199984 0.0199981 0.0199979 0.0199976 0.0199973 0.0199969 0.0199965 0.019996 0.0199955 0.019995 0.0199944 0.0199937 0.0199929 0.0199921 0.0199912 0.0199901 0.019989 0.0199878 0.0199864 0.0199849 0.0199833 0.0199815 0.0199795 0.0199773 0.0199749 0.0199724 0.0199696 0.0199665 0.0199633 0.0199597 0.0199559 0.0199519 0.0199476 0.019943 0.0199382 0.0199331 0.0199278 0.0199223 0.0199166 0.0199107 0.0199047 0.0198986 0.0198925 0.0198865 0.0198806 0.0198749 0.0198696 0.0198646 0.0198602 0.0198566 0.0198537 0.019852 0.0198514 0.0198523 0.0198548 0.0198592 0.0198658 0.0198749 0.0198866 0.0199015 0.0199198 0.0199418 0.019968 0.0199988 0.0200346 0.0200759 0.020123 0.0201765 0.0202367 0.0203041 0.020379 0.0204615 0.0205519 0.0206501 0.0207559 0.0208688 0.0209884 0.0211137 0.0212439 0.0213777 0.0215138 0.0216505 0.0217836 0.0219061 0.0220217 0.0221339 0.0222424 0.0223463 0.0224436 0.022533 0.0226134 0.0226833 0.0227413 0.022786 0.0228153 0.0228274 0.0228198 0.02279 0.0227352 0.0226523 0.0225378 0.0223881 0.0221989 0.0219653 0.0216839 0.0213789 0.0211699 0.0211857 0.0206499 0.0196765 0.0189861 0.0183518 0.0176284 0.0167443 0.0156185 0.0147257 0.0154502 0 0 0 0 0 0 0 0 0 0 0 0 0 0 0 0 0 0 0 0 0 0 0 0 0 0 0 0 0 0 0 0 0 0 0 0 0 0 0 0 0 0 0 0 0 0 0 0 0 0 0 0 0 0 0 0 0 0 0 0 0 0 0 0 0 0 0 0 0 0 0 0 0 0 0 0 0 0 0 0 0 0 0 0 0 0 0 0 0 0 0 0 0 0 0 0 0 0 0 0 0 0 0 0 0 0 0 0 0 0 0 0 0 0 0 0 0 0 0 0 0 0 0 0 0 0 0 0 0 0 0 0 0 0 0 0 0 0 0 0 0 0 0 0 0 0 0 0 0 0 0 0 0 0 0 0 0 0 0 0 0 0 0 0 0 0 0 0 0 0 0 0 0 0 0 0 0 0 0 0 0 0 0 0 0 0 0 0 0 0 0 0 0 0 0 0 0 0 0 0 0 0 0 0 0 0 0 0 0 0 0 0 0 0 0 0 0 0 0 0 0 0 0 0 0 0 0 0 0 0 0 0 0 0 0 0 0 0 0 0 0 0 0 0 0 0 0 0 0 0 0 0 0 0 0 0 0 0 0 0 0 0 0 0 0 0 0 0 0 0 0 0 0 0 0 0 0 0 0 0 0 0 0 0 0 0 0 0 0 0 0 0 0 0 0 0 0 0 0 0 0 0 0 0 0 0 0 0 0 0 0 0 0 0 0 0 0 0 0 0 0 0 0 0 0 0 0 0 0 0 0 0 0 0 0 0 0 0 0 0 0 0 0 0 0 0 0 0 0 0 0 0 0 0 0 0 0 0 0 0 0 0 0 0 0 0 0 0 0 0 0 0 0 0 0 0 0 0 0 0 0 0 0 0 0 0 0 0 0 0 0 0 0 0 0 0 0 0 0 0 0 0 0 0 0 0 0 0 0 0 0 0 0 0 0 0 0 0 0 0 0 0 0 0 0 0 0 0 0 0 0 0 0 0 0 0 0 0 0 0 0 0 0 0 0 0 0 0 0 0 0 0 0 0 0 0 0 0 0 0 0 0 0 0 0 0 0 0 0 
0.02 0.02 0.02 0.02 0.02 0.02 0.02 0.02 0.02 0.02 0.02 0.02 0.02 0.02 0.02 0.0199999 0.0199999 0.0199999 0.0199999 0.0199999 0.0199998 0.0199998 0.0199998 0.0199997 0.0199997 0.0199996 0.0199996 0.0199995 0.0199994 0.0199993 0.0199992 0.0199991 0.0199989 0.0199988 0.0199986 0.0199984 0.0199982 0.0199979 0.0199976 0.0199973 0.019997 0.0199966 0.0199962 0.0199957 0.0199951 0.0199945 0.0199939 0.0199932 0.0199924 0.0199915 0.0199905 0.0199894 0.0199882 0.0199869 0.0199854 0.0199839 0.0199821 0.0199802 0.0199781 0.0199758 0.0199733 0.0199706 0.0199677 0.0199646 0.0199612 0.0199575 0.0199536 0.0199494 0.019945 0.0199403 0.0199354 0.0199303 0.0199249 0.0199194 0.0199137 0.0199079 0.019902 0.0198961 0.0198903 0.0198846 0.0198791 0.0198739 0.0198691 0.0198649 0.0198614 0.0198587 0.019857 0.0198565 0.0198575 0.0198601 0.0198645 0.0198711 0.0198801 0.0198918 0.0199065 0.0199246 0.0199465 0.0199725 0.020003 0.0200386 0.0200795 0.0201263 0.0201794 0.0202392 0.0203062 0.0203806 0.0204627 0.0205527 0.0206504 0.0207557 0.0208683 0.0209874 0.0211122 0.0212419 0.0213752 0.0215108 0.0216469 0.0217808 0.0219081 0.0220266 0.0221392 0.0222466 0.0223483 0.0224433 0.0225303 0.0226081 0.0226753 0.0227305 0.0227722 0.0227986 0.0228075 0.0227967 0.0227637 0.0227058 0.0226198 0.0225026 0.0223503 0.022159 0.0219247 0.0216478 0.02136 0.0211289 0.020922 0.0204488 0.0197178 0.0190121 0.0183042 0.0175013 0.0165678 0.0155307 0.0146357 0.0139922 0.012856 0.0115414 0.00965436 0.00919095 0 0 0 0 0 0 0 0 0 0 0 0 0 0 0 0 0 0 0 0 0 0 0 0 0 0 0 0 0 0 0 0 0 0 0 0 0 0 0 0 0 0 0 0 0 0 0 0 0 0 0 0 0 0 0 0 0 0 0 0 0 0 0 0 0 0 0 0 0 0 0 0 0 0 0 0 0 0 0 0 0 0 0 0 0 0 0 0 0 0 0 0 0 0 0 0 0 0 0 0 0 0 0 0 0 0 0 0 0 0 0 0 0 0 0 0 0 0 0 0 0 0 0 0 0 0 0 0 0 0 0 0 0 0 0 0 0 0 0 0 0 0 0 0 0 0 0 0 0 0 0 0 0 0 0 0 0 0 0 0 0 0 0 0 0 0 0 0 0 0 0 0 0 0 0 0 0 0 0 0 0 0 0 0 0 0 0 0 0 0 0 0 0 0 0 0 0 0 0 0 0 0 0 0 0 0 0 0 0 0 0 0 0 0 0 0 0 0 0 0 0 0 0 0 0 0 0 0 0 0 0 0 0 0 0 0 0 0 0 0 0 0 0 0 0 0 0 0 0 0 0 0 0 0 0 0 0 0 0 0 0 0 0 0 0 0 0 0 0 0 0 0 0 0 0 0 0 0 0 0 0 0 0 0 0 0 0 0 0 0 0 0 0 0 0 0 0 0 0 0 0 0 0 0 0 0 0 0 0 0 0 0 0 0 0 0 0 0 0 0 0 0 0 0 0 0 0 0 0 0 0 0 0 0 0 0 0 0 0 0 0 0 0 0 0 0 0 0 0 0 0 0 0 0 0 0 0 0 0 0 0 0 0 0 0 0 0 0 0 0 0 0 0 0 0 0 0 0 0 0 0 0 0 0 0 0 0 0 0 0 0 0 0 0 0 0 0 0 0 0 0 0 0 0 0 0 0 0 0 0 0 0 0 0 0 0 0 0 0 0 0 0 0 0 0 0 0 0 0 0 0 0 0 0 0 0 0 0 0 0 0 0 0 0 0 0 0 0 0 0 0 0 0 0 0 0 0 0 0 0 0 0 0 0 -2.71051e-20 
0.02 0.02 0.02 0.02 0.02 0.02 0.02 0.02 0.02 0.02 0.02 0.02 0.02 0.02 0.02 0.0199999 0.0199999 0.0199999 0.0199999 0.0199999 0.0199998 0.0199998 0.0199998 0.0199997 0.0199997 0.0199996 0.0199996 0.0199995 0.0199994 0.0199993 0.0199992 0.0199991 0.019999 0.0199988 0.0199987 0.0199985 0.0199982 0.019998 0.0199977 0.0199974 0.0199971 0.0199967 0.0199963 0.0199958 0.0199953 0.0199948 0.0199941 0.0199934 0.0199927 0.0199918 0.0199909 0.0199899 0.0199887 0.0199875 0.0199861 0.0199846 0.0199829 0.0199811 0.0199791 0.019977 0.0199746 0.019972 0.0199692 0.0199662 0.019963 0.0199595 0.0199558 0.0199518 0.0199476 0.0199431 0.0199384 0.0199335 0.0199284 0.0199231 0.0199177 0.0199121 0.0199065 0.0199009 0.0198953 0.0198899 0.0198846 0.0198797 0.0198752 0.0198712 0.0198679 0.0198655 0.019864 0.0198637 0.0198648 0.0198675 0.0198721 0.0198788 0.0198878 0.0198995 0.0199142 0.0199322 0.019954 0.0199798 0.0200102 0.0200454 0.0200861 0.0201326 0.0201853 0.0202448 0.0203114 0.0203854 0.0204671 0.0205566 0.0206539 0.0207587 0.0208708 0.0209894 0.0211138 0.0212429 0.0213756 0.0215105 0.0216461 0.02178 0.021909 0.0220304 0.0221441 0.0222507 0.0223503 0.0224424 0.0225261 0.0226003 0.0226636 0.0227148 0.0227523 0.0227742 0.0227785 0.0227631 0.0227254 0.0226628 0.0225723 0.0224508 0.0222946 0.0221004 0.0218658 0.0215961 0.0213165 0.0210588 0.0207835 0.0203472 0.0197225 0.0190215 0.0182659 0.0174164 0.0164666 0.015478 0.0145513 0.0136668 0.0125191 0.0112173 0.00931732 0.00764094 0.00486849 0.00159333 0 0 0 0 0 0 0 0 0 0 0 0 0 0 0 0 0 0 0 0 0 0 0 0 0 0 0 0 0 0 0 0 0 0 0 0 0 0 0 0 0 0 0 0 0 0 0 0 0 0 0 0 0 0 0 0 0 0 0 0 0 0 0 0 0 0 0 0 0 0 0 0 0 0 0 0 0 0 0 0 0 0 0 0 0 0 0 0 0 0 0 0 0 0 0 0 0 0 0 0 0 0 0 0 0 0 0 0 0 0 0 0 0 0 0 0 0 0 0 0 0 0 0 0 0 0 0 0 0 0 0 0 0 0 0 0 0 0 0 0 0 0 0 0 0 0 0 0 0 0 0 0 0 0 0 0 0 0 0 0 0 0 0 0 0 0 0 0 0 0 0 0 0 0 0 0 0 0 0 0 0 0 0 0 0 0 0 0 0 0 0 0 0 0 0 0 0 0 0 0 0 0 0 0 0 0 0 0 0 0 0 0 0 0 0 0 0 0 0 0 0 0 0 0 0 0 0 0 0 0 0 0 0 0 0 0 0 0 0 0 0 0 0 0 0 0 0 0 0 0 0 0 0 0 0 0 0 0 0 0 0 0 0 0 0 0 0 0 0 0 0 0 0 0 0 0 0 0 0 0 0 0 0 0 0 0 0 0 0 0 0 0 0 0 0 0 0 0 0 0 0 0 0 0 0 0 0 0 0 0 0 0 0 0 0 0 0 0 0 0 0 0 0 0 0 0 0 0 0 0 0 0 0 0 0 0 0 0 0 0 0 0 0 0 0 0 0 0 0 0 0 0 0 0 0 0 0 0 0 0 0 0 0 0 0 0 0 0 0 0 0 0 0 0 0 0 0 0 0 0 0 0 0 0 0 0 0 0 0 0 0 0 0 0 0 0 0 0 0 0 0 0 0 0 0 0 0 0 0 0 0 0 0 0 0 0 0 0 0 0 0 0 0 0 0 0 0 0 0 0 0 0 0 0 0 0 0 0 0 0 0 0 0 0 0 0 0 0 0 0 0 0 0 0 0 0 0 0 0 0 0 -0.00405539 -1.0842e-19 
0.02 0.02 0.02 0.02 0.02 0.02 0.02 0.02 0.02 0.02 0.02 0.02 0.02 0.02 0.02 0.0199999 0.0199999 0.0199999 0.0199999 0.0199999 0.0199999 0.0199998 0.0199998 0.0199998 0.0199997 0.0199997 0.0199996 0.0199995 0.0199995 0.0199994 0.0199993 0.0199992 0.019999 0.0199989 0.0199987 0.0199985 0.0199983 0.0199981 0.0199978 0.0199976 0.0199972 0.0199969 0.0199965 0.0199961 0.0199956 0.019995 0.0199945 0.0199938 0.0199931 0.0199923 0.0199914 0.0199905 0.0199894 0.0199882 0.0199869 0.0199855 0.019984 0.0199823 0.0199804 0.0199784 0.0199761 0.0199737 0.0199711 0.0199683 0.0199652 0.019962 0.0199585 0.0199547 0.0199507 0.0199466 0.0199421 0.0199375 0.0199327 0.0199277 0.0199226 0.0199174 0.0199122 0.0199069 0.0199017 0.0198966 0.0198917 0.0198871 0.019883 0.0198794 0.0198764 0.0198743 0.0198731 0.0198731 0.0198745 0.0198774 0.0198822 0.019889 0.0198981 0.0199099 0.0199246 0.0199427 0.0199643 0.0199901 0.0200202 0.0200553 0.0200956 0.0201418 0.0201942 0.0202532 0.0203193 0.0203928 0.020474 0.0205629 0.0206595 0.0207637 0.020875 0.0209929 0.0211165 0.0212447 0.0213764 0.0215103 0.0216447 0.0217777 0.0219068 0.0220292 0.0221436 0.0222495 0.0223472 0.0224362 0.022516 0.0225857 0.0226442 0.0226902 0.0227221 0.0227383 0.0227367 0.0227153 0.0226716 0.0226031 0.0225069 0.0223799 0.022219 0.0220214 0.021787 0.0215231 0.0212469 0.0209697 0.0206605 0.0202354 0.0196581 0.0189674 0.0181906 0.0173216 0.016374 0.0153948 0.0144223 0.0134157 0.0122626 0.0109642 0.0093834 0.0072171 0.00426318 0.000423371 -0.00564077 -0.0100367 0 0 0 0 0 0 0 0 0 0 0 0 0 0 0 0 0 0 0 0 0 0 0 0 0 0 0 0 0 0 0 0 0 0 0 0 0 0 0 0 0 0 0 0 0 0 0 0 0 0 0 0 0 0 0 0 0 0 0 0 0 0 0 0 0 0 0 0 0 0 0 0 0 0 0 0 0 0 0 0 0 0 0 0 0 0 0 0 0 0 0 0 0 0 0 0 0 0 0 0 0 0 0 0 0 0 0 0 0 0 0 0 0 0 0 0 0 0 0 0 0 0 0 0 0 0 0 0 0 0 0 0 0 0 0 0 0 0 0 0 0 0 0 0 0 0 0 0 0 0 0 0 0 0 0 0 0 0 0 0 0 0 0 0 0 0 0 0 0 0 0 0 0 0 0 0 0 0 0 0 0 0 0 0 0 0 0 0 0 0 0 0 0 0 0 0 0 0 0 0 0 0 0 0 0 0 0 0 0 0 0 0 0 0 0 0 0 0 0 0 0 0 0 0 0 0 0 0 0 0 0 0 0 0 0 0 0 0 0 0 0 0 0 0 0 0 0 0 0 0 0 0 0 0 0 0 0 0 0 0 0 0 0 0 0 0 0 0 0 0 0 0 0 0 0 0 0 0 0 0 0 0 0 0 0 0 0 0 0 0 0 0 0 0 0 0 0 0 0 0 0 0 0 0 0 0 0 0 0 0 0 0 0 0 0 0 0 0 0 0 0 0 0 0 0 0 0 0 0 0 0 0 0 0 0 0 0 0 0 0 0 0 0 0 0 0 0 0 0 0 0 0 0 0 0 0 0 0 0 0 0 0 0 0 0 0 0 0 0 0 0 0 0 0 0 0 0 0 0 0 0 0 0 0 0 0 0 0 0 0 0 0 0 0 0 0 0 0 0 0 0 0 0 0 0 0 0 0 0 0 0 0 0 0 0 0 0 0 0 0 0 0 0 0 0 0 0 0 0 0 0 0 0 0 0 0 0 0 0 0 0 0 0 0 0 0 0 0 0 0 0 0 0 0 0 0 0 0 -0.0131297 -0.00684259 -2.1684e-19 
0.02 0.02 0.02 0.02 0.02 0.02 0.02 0.02 0.02 0.02 0.02 0.02 0.02 0.02 0.02 0.0199999 0.0199999 0.0199999 0.0199999 0.0199999 0.0199999 0.0199998 0.0199998 0.0199998 0.0199997 0.0199997 0.0199996 0.0199996 0.0199995 0.0199994 0.0199993 0.0199992 0.0199991 0.0199989 0.0199988 0.0199986 0.0199984 0.0199982 0.019998 0.0199977 0.0199974 0.0199971 0.0199967 0.0199963 0.0199959 0.0199954 0.0199948 0.0199943 0.0199936 0.0199929 0.0199921 0.0199912 0.0199902 0.0199891 0.0199879 0.0199866 0.0199852 0.0199836 0.0199819 0.01998 0.019978 0.0199758 0.0199734 0.0199708 0.0199679 0.0199649 0.0199617 0.0199582 0.0199546 0.0199507 0.0199466 0.0199424 0.0199379 0.0199333 0.0199286 0.0199238 0.019919 0.0199141 0.0199094 0.0199047 0.0199003 0.0198962 0.0198925 0.0198893 0.0198868 0.0198851 0.0198843 0.0198847 0.0198864 0.0198896 0.0198947 0.0199017 0.019911 0.019923 0.0199378 0.0199558 0.0199774 0.020003 0.020033 0.0200678 0.0201079 0.0201537 0.0202056 0.0202641 0.0203296 0.0204025 0.0204829 0.0205709 0.0206667 0.0207699 0.0208802 0.0209969 0.0211192 0.021246 0.0213763 0.0215084 0.021641 0.0217723 0.0218999 0.0220217 0.0221355 0.0222403 0.0223357 0.0224213 0.0224967 0.0225612 0.022614 0.0226537 0.022679 0.0226882 0.0226796 0.0226509 0.0226 0.0225244 0.0224213 0.022288 0.0221215 0.0219202 0.0216854 0.0214242 0.0211465 0.020852 0.0205134 0.0200821 0.0195228 0.0188454 0.01807 0.017205 0.0162667 0.0152825 0.0142671 0.0131862 0.0119951 0.0106641 0.00906557 0.00692896 0.00413463 0.000439444 -0.00578053 -0.014437 0 0 0 0 0 0 0 0 0 0 0 0 0 0 0 0 0 0 0 0 0 0 0 0 0 0 0 0 0 0 0 0 0 0 0 0 0 0 0 0 0 0 0 0 0 0 0 0 0 0 0 0 0 0 0 0 0 0 0 0 0 0 0 0 0 0 0 0 0 0 0 0 0 0 0 0 0 0 0 0 0 0 0 0 0 0 0 0 0 0 0 0 0 0 0 0 0 0 0 0 0 0 0 0 0 0 0 0 0 0 0 0 0 0 0 0 0 0 0 0 0 0 0 0 0 0 0 0 0 0 0 0 0 0 0 0 0 0 0 0 0 0 0 0 0 0 0 0 0 0 0 0 0 0 0 0 0 0 0 0 0 0 0 0 0 0 0 0 0 0 0 0 0 0 0 0 0 0 0 0 0 0 0 0 0 0 0 0 0 0 0 0 0 0 0 0 0 0 0 0 0 0 0 0 0 0 0 0 0 0 0 0 0 0 0 0 0 0 0 0 0 0 0 0 0 0 0 0 0 0 0 0 0 0 0 0 0 0 0 0 0 0 0 0 0 0 0 0 0 0 0 0 0 0 0 0 0 0 0 0 0 0 0 0 0 0 0 0 0 0 0 0 0 0 0 0 0 0 0 0 0 0 0 0 0 0 0 0 0 0 0 0 0 0 0 0 0 0 0 0 0 0 0 0 0 0 0 0 0 0 0 0 0 0 0 0 0 0 0 0 0 0 0 0 0 0 0 0 0 0 0 0 0 0 0 0 0 0 0 0 0 0 0 0 0 0 0 0 0 0 0 0 0 0 0 0 0 0 0 0 0 0 0 0 0 0 0 0 0 0 0 0 0 0 0 0 0 0 0 0 0 0 0 0 0 0 0 0 0 0 0 0 0 0 0 0 0 0 0 0 0 0 0 0 0 0 0 0 0 0 0 0 0 0 0 0 0 0 0 0 0 0 0 0 0 0 0 0 0 0 0 0 0 0 0 0 0 0 0 0 0 0 0 0 0 0 0 0 0 0 0 0 0 0 0 0 -0.0284155 -0.0237352 -0.0169726 -0.00924251 -2.1684e-19 
0.02 0.02 0.02 0.02 0.02 0.02 0.02 0.02 0.02 0.02 0.02 0.02 0.02 0.02 0.02 0.0199999 0.0199999 0.0199999 0.0199999 0.0199999 0.0199999 0.0199998 0.0199998 0.0199998 0.0199997 0.0199997 0.0199996 0.0199996 0.0199995 0.0199994 0.0199994 0.0199993 0.0199991 0.019999 0.0199989 0.0199987 0.0199985 0.0199983 0.0199981 0.0199979 0.0199976 0.0199973 0.019997 0.0199966 0.0199962 0.0199958 0.0199953 0.0199948 0.0199942 0.0199935 0.0199928 0.019992 0.0199911 0.0199901 0.0199891 0.0199879 0.0199866 0.0199852 0.0199837 0.019982 0.0199801 0.0199781 0.0199759 0.0199736 0.019971 0.0199683 0.0199654 0.0199623 0.019959 0.0199555 0.0199518 0.0199479 0.0199439 0.0199398 0.0199355 0.0199312 0.0199269 0.0199226 0.0199183 0.0199142 0.0199103 0.0199068 0.0199036 0.0199009 0.0198989 0.0198977 0.0198974 0.0198983 0.0199004 0.019904 0.0199094 0.0199168 0.0199263 0.0199384 0.0199534 0.0199714 0.0199931 0.0200186 0.0200484 0.0200829 0.0201226 0.0201679 0.0202192 0.0202771 0.0203419 0.0204138 0.0204932 0.0205802 0.0206748 0.0207766 0.0208854 0.0210005 0.021121 0.0212459 0.0213739 0.0215037 0.0216337 0.0217622 0.0218872 0.0220066 0.0221183 0.0222208 0.0223132 0.0223949 0.0224654 0.0225241 0.0225702 0.0226028 0.0226204 0.0226217 0.0226048 0.0225679 0.0225086 0.0224248 0.0223139 0.0221732 0.0220006 0.0217949 0.0215583 0.021296 0.0210128 0.0207026 0.0203414 0.0198947 0.0193389 0.0186746 0.017913 0.0170631 0.0161355 0.0151453 0.0140898 0.0129572 0.0117136 0.0103261 0.00869194 0.00659938 0.00389946 -3.63335e-05 -0.00590765 -0.0150506 0 0 0 0 0 0 0 0 0 0 -0.0359177 -0.0375289 -0.0427433 -0.0469383 -0.0499242 -0.0529809 -0.0564608 -0.0642916 0 0 0 0 0 0 0 0 0 0 0 0 0 0 0 0 0 0 0 0 0 0 0 0 0 0 0 0 0 0 0 0 0 0 0 0 0 0 0 0 0 0 0 0 0 0 0 0 0 0 0 0 0 0 0 0 0 0 0 0 0 0 0 0 0 0 0 0 0 0 0 0 0 0 0 0 0 0 0 0 0 0 0 0 0 0 0 0 0 0 0 0 0 0 0 0 0 0 0 0 0 0 0 0 0 0 0 0 0 0 0 0 0 0 0 0 0 0 0 0 0 0 0 0 0 0 0 0 0 0 0 0 0 0 0 0 0 0 0 0 0 0 0 0 0 0 0 0 0 0 0 0 0 0 0 0 0 0 0 0 0 0 0 0 0 0 0 0 0 0 0 0 0 0 0 0 0 0 0 0 0 0 0 0 0 0 0 0 0 0 0 0 0 0 0 0 0 0 0 -0.0469074 -0.0482403 -0.0483975 -0.0482114 -0.0479843 -0.0480698 -0.0534385 0 0 0 0 0 0 0 0 0 0 0 0 0 0 0 0 0 0 0 0 0 0 0 0 0 0 0 0 0 0 0 0 0 0 0 0 0 0 0 0 0 0 0 0 0 0 0 0 0 0 0 0 0 0 0 0 0 0 0 0 0 0 0 0 0 0 0 0 0 0 0 0 0 0 0 0 0 0 0 0 0 0 0 0 0 0 0 0 0 0 0 0 0 0 0 0 0 0 0 0 0 0 0 0 0 0 0 0 0 0 0 0 0 0 0 0 0 0 0 0 0 0 0 0 0 0 0 0 0 0 0 0 0 0 0 0 0 0 0 0 0 0 0 0 0 0 0 0 0 0 0 0 0 0 0 0 0 0 0 0 0 0 0 0 0 0 0 0 0 0 0 0 0 0 0 0 0 0 0 -0.0410143 -0.0430472 -0.0438246 -0.0441904 -0.0443869 -0.0445964 -0.0448617 -0.0451719 -0.0452426 -0.0453348 -0.0466237 -0.0501094 -0.044766 0 0 0 0 0 -0.0359404 -0.038926 -0.0402524 -0.0411249 -0.0416598 -0.0419882 -0.0421893 -0.0423036 -0.0423658 -0.0423957 -0.0424057 -0.0424031 -0.042392 -0.0423746 -0.042352 -0.0423249 -0.0422934 -0.0422577 -0.0422177 -0.0421735 -0.0421249 -0.0420718 -0.0420138 -0.0419504 -0.0418808 -0.041803 -0.0417136 -0.0416046 -0.0414561 -0.0411992 -0.0406383 -0.0396313 -0.0384548 -0.036801 -0.034255 -0.030279 -0.0250128 -0.0184942 -0.0105055 1.51788e-18 
0.02 0.02 0.02 0.02 0.02 0.02 0.02 0.02 0.02 0.02 0.02 0.02 0.02 0.02 0.02 0.02 0.0199999 0.0199999 0.0199999 0.0199999 0.0199999 0.0199999 0.0199998 0.0199998 0.0199998 0.0199997 0.0199997 0.0199996 0.0199996 0.0199995 0.0199994 0.0199993 0.0199992 0.0199991 0.019999 0.0199988 0.0199987 0.0199985 0.0199983 0.0199981 0.0199978 0.0199976 0.0199973 0.019997 0.0199966 0.0199962 0.0199958 0.0199953 0.0199948 0.0199942 0.0199936 0.0199929 0.0199921 0.0199913 0.0199903 0.0199893 0.0199882 0.019987 0.0199856 0.0199841 0.0199825 0.0199807 0.0199788 0.0199767 0.0199745 0.0199721 0.0199695 0.0199668 0.0199638 0.0199608 0.0199575 0.0199541 0.0199506 0.019947 0.0199433 0.0199395 0.0199358 0.019932 0.0199284 0.0199249 0.0199216 0.0199187 0.0199161 0.0199141 0.0199127 0.019912 0.0199123 0.0199137 0.0199163 0.0199204 0.0199262 0.0199339 0.0199438 0.0199561 0.0199712 0.0199893 0.0200109 0.0200363 0.0200659 0.0201001 0.0201393 0.0201841 0.0202347 0.0202918 0.0203556 0.0204264 0.0205046 0.0205901 0.0206831 0.0207831 0.0208899 0.0210028 0.0211209 0.0212431 0.0213683 0.0214948 0.0216214 0.0217461 0.0218673 0.0219829 0.022091 0.0221898 0.022278 0.0223549 0.0224197 0.0224719 0.0225108 0.0225353 0.0225444 0.0225368 0.0225107 0.0224644 0.0223958 0.0223029 0.0221831 0.0220344 0.0218548 0.021644 0.0214037 0.0211374 0.020846 0.0205214 0.0201435 0.0196866 0.0191325 0.0184779 0.0177291 0.0168935 0.0159763 0.0149803 0.0139028 0.0127241 0.0114245 0.00996859 0.00827382 0.00618928 0.00352979 -0.000222482 -0.00635612 -0.0124118 0 0 0 0 0 0 0 0 0 0 -0.0323712 -0.0381794 -0.042991 -0.0467528 -0.0496498 -0.0523906 -0.0529324 -0.0570393 -0.0572995 -0.0568631 -0.0572221 -0.0575567 -0.0575345 -0.0569585 -0.0568597 -0.0572758 -0.0611314 0 0 0 0 0 0 0 0 0 0 0 0 0 0 0 0 0 0 0 0 0 0 0 0 0 0 0 0 0 0 0 0 0 0 0 0 0 0 0 0 0 0 0 0 0 0 0 0 0 0 0 0 0 0 0 0 0 0 0 0 0 0 0 0 0 0 0 0 0 0 0 0 0 0 0 0 0 0 0 0 0 0 0 0 0 0 0 0 0 0 0 0 0 0 0 0 0 0 0 0 0 0 0 0 0 0 0 0 0 0 0 0 0 0 0 0 0 0 0 0 0 0 0 0 0 0 0 0 0 0 0 0 0 0 0 0 0 0 0 0 0 0 0 0 0 0 0 0 0 0 0 0 0 0 0 0 0 0 0 0 0 0 0 0 0 0 0 0 0 0 0 0 0 0 0 0 0 0 0 0 0 0 0 0 -0.0526378 -0.0549672 -0.0537092 -0.0522866 -0.050899 -0.0494195 -0.0487168 -0.0486467 -0.0485466 -0.0483029 -0.0480591 -0.0480557 -0.048862 -0.0493525 -0.0485722 -0.048102 -0.0480131 -0.0479717 -0.0476924 -0.0473166 -0.0472542 -0.0473533 -0.0476227 -0.0485257 -0.0532475 -0.0503252 0 0 0 0 0 0 0 0 0 0 0 0 0 0 -0.0468473 -0.051149 -0.0528819 -0.053816 -0.0544238 -0.0548658 -0.0552102 -0.0554855 -0.0557032 -0.0558686 -0.0559839 -0.0560507 -0.0560708 -0.0560469 -0.0559825 -0.0558819 -0.0557497 -0.0555902 -0.0554078 -0.0552061 -0.0549885 -0.0547575 -0.0545155 -0.0542641 -0.0540047 -0.0537388 -0.0534678 -0.0531935 -0.0529181 -0.0526438 -0.0523733 -0.052109 -0.0518536 -0.0516096 -0.0513797 -0.0511665 -0.0509733 -0.0508035 -0.0506618 -0.0505531 -0.0504832 -0.0504575 -0.0504806 -0.0505554 -0.0506828 -0.0508618 -0.0510892 -0.051361 -0.0516722 -0.0520185 -0.0523969 -0.0528058 -0.0532445 -0.053717 -0.0542357 -0.0548045 -0.0553812 -0.0561781 -0.058327 -0.0685596 0 0 0 0 0 0 0 0 0 0 0 0 0 0 0 0 0 0 0 0 0 0 0 0 0 0 0 0 0 0 0 0 0 0 0 0 0 0 0 0 0 0 0 0 0 0 0 -0.0456785 -0.0496517 -0.0512451 -0.0517047 -0.0517906 -0.0516657 -0.0514351 -0.0511382 -0.0507951 -0.0504038 -0.0499257 -0.049344 -0.0486875 -0.0482395 -0.0478956 -0.047609 -0.0473613 -0.0471431 -0.0469494 -0.0467766 -0.0466224 -0.0464848 -0.0463622 -0.046253 -0.0461559 -0.0460694 -0.045992 -0.0459224 -0.0458591 -0.0458004 -0.0457448 -0.0456907 -0.0456365 -0.045581 -0.0455231 -0.0454622 -0.0453975 -0.0453278 -0.0452518 -0.045174 -0.0451115 -0.045061 -0.04489 -0.0443437 -0.0432954 -0.0430369 -0.0434532 -0.0439789 -0.0443137 -0.0445831 -0.0448353 -0.0450362 -0.0452803 -0.0451616 -0.0451475 -0.0453746 -0.0451036 -0.0442664 -0.0434364 -0.043232 -0.0429591 -0.0425035 -0.0416337 -0.0402193 -0.0401701 -0.0406497 -0.0412258 -0.0416782 -0.0419881 -0.042192 -0.0423112 -0.0423777 -0.0424104 -0.0424219 -0.0424199 -0.0424088 -0.0423911 -0.0423681 -0.0423405 -0.0423084 -0.0422722 -0.0422318 -0.0421872 -0.0421385 -0.0420855 -0.042028 -0.0419656 -0.0418975 -0.0418217 -0.0417344 -0.041625 -0.0414636 -0.0411763 -0.040647 -0.0397983 -0.0386296 -0.0369075 -0.0343091 -0.0305457 -0.0256001 -0.0193662 -0.0112605 -8.67362e-19 
0.02 0.02 0.02 0.02 0.02 0.02 0.02 0.02 0.02 0.02 0.02 0.02 0.02 0.02 0.02 0.02 0.0199999 0.0199999 0.0199999 0.0199999 0.0199999 0.0199999 0.0199998 0.0199998 0.0199998 0.0199997 0.0199997 0.0199997 0.0199996 0.0199995 0.0199995 0.0199994 0.0199993 0.0199992 0.0199991 0.019999 0.0199988 0.0199987 0.0199985 0.0199983 0.0199981 0.0199979 0.0199976 0.0199973 0.019997 0.0199967 0.0199963 0.0199959 0.0199955 0.019995 0.0199945 0.0199939 0.0199932 0.0199925 0.0199917 0.0199908 0.0199899 0.0199888 0.0199877 0.0199864 0.0199851 0.0199836 0.0199819 0.0199802 0.0199782 0.0199762 0.019974 0.0199717 0.0199692 0.0199665 0.0199638 0.0199609 0.0199579 0.0199549 0.0199517 0.0199486 0.0199454 0.0199424 0.0199394 0.0199366 0.019934 0.0199317 0.0199299 0.0199285 0.0199278 0.0199278 0.0199288 0.0199308 0.019934 0.0199386 0.0199448 0.0199529 0.0199632 0.0199757 0.019991 0.0200092 0.0200307 0.020056 0.0200853 0.0201191 0.0201578 0.0202018 0.0202517 0.0203077 0.0203703 0.0204397 0.0205163 0.0206 0.0206909 0.0207888 0.020893 0.0210031 0.0211181 0.021237 0.0213584 0.0214809 0.0216031 0.0217231 0.0218392 0.0219497 0.0220526 0.0221462 0.022229 0.0223 0.0223582 0.0224031 0.0224338 0.0224496 0.0224494 0.022432 0.0223958 0.0223393 0.0222605 0.0221575 0.0220283 0.0218708 0.0216836 0.0214667 0.0212212 0.0209489 0.0206485 0.0203114 0.019921 0.0194571 0.0189049 0.0182588 0.0175209 0.0166957 0.0157849 0.0147846 0.0136848 0.0124718 0.0111214 0.00959726 0.00783569 0.00572099 0.00306451 -0.000495504 -0.00604173 -0.0118846 -0.0173368 0 0 0 0 0 0 0 0 -0.0326689 -0.0359852 -0.0406684 -0.0435715 -0.0466478 -0.0494636 -0.052015 -0.0541245 -0.0556542 -0.0559675 -0.0562811 -0.0566064 -0.0568552 -0.0568811 -0.0567409 -0.0567897 -0.0572794 -0.058736 -0.0601696 -0.0600375 -0.0602055 -0.060363 -0.0596449 -0.0590911 -0.0591029 -0.0622016 0 0 0 0 0 0 0 0 0 0 0 0 0 0 0 0 0 0 0 0 0 0 0 -0.0754512 -0.0800256 -0.080407 -0.0788464 -0.0771087 -0.0758567 -0.0747184 -0.0735745 -0.072393 -0.0711453 -0.0698297 -0.0684712 -0.0671035 -0.0656873 -0.0641126 -0.0626386 -0.0615134 -0.0606668 -0.0600616 -0.0596687 -0.0594625 -0.0594202 -0.0595202 -0.059741 -0.0600605 -0.0604553 -0.0609022 -0.0613773 -0.0618573 -0.0623255 -0.0627852 -0.0631877 -0.0635939 -0.0641105 -0.0665667 -0.0767396 0 0 0 0 0 0 0 0 0 0 0 0 0 0 0 0 0 0 0 0 0 0 0 0 0 0 0 0 0 0 0 0 0 0 0 0 0 0 0 0 0 0 0 0 0 0 0 0 0 0 0 0 0 0 0 0 0 0 0 0 0 0 0 0 0 0 0 0 0 0 0 0 0 0 0 0 0 0 0 0 0 0 0 0 0 0 0 0 0 0 0 0 0 0 0 0 0 0 0 0 0 0 0 0 0 0 0 0 0 0 0 0 0 0 -0.0606261 -0.061674 -0.0597403 -0.0577131 -0.0561107 -0.0543842 -0.0528015 -0.0513348 -0.0501245 -0.0494606 -0.0490918 -0.0487854 -0.0484773 -0.0482208 -0.0481974 -0.0485552 -0.0489151 -0.0486697 -0.0482246 -0.0480212 -0.0478717 -0.0476606 -0.0474163 -0.0473505 -0.0474439 -0.0477814 -0.0486134 -0.0501266 -0.0504411 -0.0495984 -0.0495846 -0.0496906 -0.0498781 -0.0501191 -0.0503913 -0.0506814 -0.050985 -0.0513034 -0.0516419 -0.0520079 -0.0524076 -0.0527563 -0.0527803 -0.0519065 -0.0524068 -0.0531819 -0.0538554 -0.0543948 -0.054825 -0.0551719 -0.0554515 -0.055673 -0.055841 -0.0559583 -0.0560267 -0.0560486 -0.0560266 -0.0559642 -0.0558657 -0.0557355 -0.055578 -0.0553976 -0.0551979 -0.0549823 -0.0547533 -0.0545133 -0.0542639 -0.0540065 -0.0537427 -0.053474 -0.053202 -0.0529288 -0.0526566 -0.052388 -0.0521254 -0.0518713 -0.0516283 -0.051399 -0.0511861 -0.0509926 -0.0508223 -0.0506797 -0.0505698 -0.0504984 -0.0504708 -0.0504914 -0.050563 -0.0506863 -0.0508602 -0.0510818 -0.0513471 -0.0516513 -0.0519901 -0.0523608 -0.0527624 -0.0531952 -0.0536649 -0.05419 -0.0547978 -0.0554672 -0.0563785 -0.0582072 -0.0614006 -0.0628885 -0.062826 -0.0633544 -0.0639443 -0.0646229 -0.0653642 -0.0661272 -0.0668733 -0.0674694 -0.0677208 -0.0677509 -0.0679852 -0.068336 -0.0687452 -0.0691602 -0.0695395 -0.0698555 -0.0700916 -0.0702385 -0.0702925 -0.0702527 -0.0701212 -0.069904 -0.0696099 -0.0692504 -0.068838 -0.0683834 -0.067894 -0.0673744 -0.0668267 -0.0662528 -0.0656549 -0.0650325 -0.0643699 -0.0635753 -0.0625311 -0.0616026 -0.0607425 -0.0599034 -0.0590819 -0.0582826 -0.0575117 -0.0567711 -0.0560386 -0.0552351 -0.0541889 -0.0528039 -0.0511914 -0.0510692 -0.0515402 -0.051781 -0.0518274 -0.0516971 -0.0514674 -0.0511638 -0.0508033 -0.050383 -0.0498936 -0.0493488 -0.048818 -0.0483804 -0.0480246 -0.047725 -0.0474662 -0.0472389 -0.0470376 -0.0468587 -0.0466993 -0.0465573 -0.0464308 -0.046318 -0.0462174 -0.0461273 -0.0460462 -0.0459725 -0.0459047 -0.045841 -0.0457801 -0.0457204 -0.0456607 -0.0456 -0.0455377 -0.0454736 -0.0454072 -0.0453374 -0.0452626 -0.0451795 -0.0450782 -0.0449189 -0.0446286 -0.0441602 -0.0436075 -0.0435933 -0.0439045 -0.0443037 -0.0446577 -0.0449606 -0.0452117 -0.0454184 -0.0454754 -0.0452376 -0.0449048 -0.044623 -0.0442314 -0.0437176 -0.0433891 -0.0431191 -0.0427484 -0.0422315 -0.0415712 -0.0408966 -0.0408009 -0.0410722 -0.0414452 -0.0417887 -0.0420495 -0.0422313 -0.0423421 -0.0424052 -0.042436 -0.0424459 -0.0424423 -0.0424297 -0.0424104 -0.0423858 -0.0423567 -0.0423233 -0.0422858 -0.0422442 -0.0421986 -0.042149 -0.0420951 -0.0420368 -0.0419737 -0.0419047 -0.0418276 -0.0417369 -0.0416173 -0.0414317 -0.0411145 -0.0405855 -0.0397733 -0.0385907 -0.0368364 -0.0342673 -0.030691 -0.0260055 -0.0199494 -0.0117466 -6.28837e-18 