# vtk DataFile Version 2.0
iteration 324
ASCII

DATASET STRUCTURED_POINTS
DIMENSIONS 621 64 1
ORIGIN 0 0 0
SPACING 0.00161031 0.00161031 0.00161031

POINT_DATA 39744
SCALARS P float 1
LOOKUP_TABLE default
0 0 0 0 0 0 0 0 0 0 0 0 0 0 0 0 0 0 0 0 0 0 0 0 0 0 0 0 0 0 0 0 0 0 0 0 0 0 0 0 0 0 0 0 0 0 0 0 0 0 0 0 0 0 0 0 0 0 0 0 0 0 0 0 0 0 0 0 0 0 0 0 0 0 0 0 0 0 0 0 0 0 0 0 0 0 0 0 0 0 0 0 0 0 0 0 0 0 0 0 0 0 0 0 0 0 0 0 0 0 0 0 0 0 0 0 0 0 0 0 0 0 0 0 0 0 0 0 0 0 0 0 0 0 0 0 0 0 0 0 0 0 0 0 0 0 0 0 0 0 0 0 0 0 0 0 0 0 0 0 0 0 0 0 0 0 0 0 0 0 0 0 0 0 0 0 0 0 0 0 0 0 0 0 0 0 0 0 0 0 0 0 0 0 0 0 0 0 0 0 0 0 0 0 0 0 0 0 0 0 0 0 0 0 0 0 0 0 0 0 0 0 0 0 0 0 0 0 0 0 0 0 0 0 0 0 0 0 0 0 0 0 0 0 0 0 0 0 0 0 0 0 0 0 0 0 0 0 0 0 0 0 0 0 0 0 0 0 0 0 0 0 0 0 0 0 0 0 0 0 0 0 0 0 0 0 0 0 0 0 0 0 0 0 0 0 0 0 0 0 0 0 0 0 0 0 0 0 0 0 0 0 0 0 0 0 0 0 0 0 0 0 0 0 0 0 0 0 0 0 0 0 0 0 0 0 0 0 0 0 0 0 0 0 0 0 0 0 0 0 0 0 0 0 0 0 0 0 0 0 0 0 0 0 0 0 0 0 0 0 0 0 0 0 0 0 0 0 0 0 0 0 0 0 0 0 0 0 0 0 0 0 0 0 0 0 0 0 0 0 0 0 0 0 0 0 0 0 0 0 0 0 0 0 0 0 0 0 0 0 0 0 0 0 0 0 0 0 0 0 0 0 0 0 0 0 0 0 0 0 0 0 0 0 0 0 0 0 0 0 0 0 0 0 0 0 0 0 0 0 0 0 0 0 0 0 0 0 0 0 0 0 0 0 0 0 0 0 0 0 0 0 0 0 0 0 0 0 0 0 0 0 0 0 0 0 0 0 0 0 0 0 0 0 0 0 0 0 0 0 0 0 0 0 0 0 0 0 0 0 0 0 0 0 0 0 0 0 0 0 0 0 0 0 0 0 0 0 0 0 0 0 0 0 0 0 0 0 0 0 0 0 0 0 0 0 0 0 0 0 0 0 0 0 0 0 0 0 0 0 0 0 0 0 0 0 0 0 0 0 0 0 0 0 0 0 0 0 0 0 0 0 0 0 0 0 0 0 0 0 0 0 0 0 0 0 0 0 0 0 0 0 0 0 0 0 0 0 0 0 0 
0.02 0.0200008 0.0200018 0.0200032 0.020005 0.0200072 0.0200101 0.0200135 0.0200176 0.0200224 0.0200279 0.0200339 0.0200404 0.0200472 0.020054 0.0200604 0.0200662 0.0200704 0.0200723 0.0200715 0.0200687 0.020063 0.0200538 0.0200405 0.0200228 0.0200004 0.0199729 0.0199402 0.0199021 0.0198587 0.01981 0.019756 0.019697 0.019633 0.0195645 0.0194917 0.0194151 0.0193349 0.0192517 0.0191657 0.019077 0.0189857 0.0188912 0.0187929 0.0186894 0.0185791 0.0184596 0.0183278 0.0181802 0.0180117 0.0178131 0.0175604 0.0172149 0.0168082 0.0163416 0.0158009 0.0151719 0.014447 0.0136544 0.013071 0.0133862 0.0115764 0 0 0 0 0 0 0 0 0 0 0 0 0 0 0 0 0 0 0 0 0 0 0 0 0 0 0 0 0 0 0 0 0 0 0 0 0 0 0 0 0 0 0 0 0 0 0 0 0 0 0 0 0 0 0 0 0 0 0 0 0 0 0 0 0 0 0 0 0 0 0 0 0 0 0 0 0 0 0 0 0 0 0 0 0 0 0 0 0 0 0 0 0 0 0 0 0 0 0 0 0 0 0 0 0 0 0 0 0 0 0 0 0 0 0 0 0 0 0 0 0 0 0 0 0 0 0 0 0 0 0 0 0 0 0 0 0 0 0 0 0 0 0 0 0 0 0 0 0 0 0 0 0 0 0 0 0 0 0 0 0 0 0 0 0 0 0 0 0 0 0 0 0 0 0 0 0 0 0 0 0 0 0 0 0 0 0 0 0 0 0 0 0 0 0 0 0 0 0 0 0 0 0 0 0 0 0 0 0 0 0 0 0 0 0 0 0 0 0 0 0 0 0 0 0 0 0 0 0 0 0 0 0 0 0 0 0 0 0 0 0 0 0 0 0 0 0 0 0 0 0 0 0 0 0 0 0 0 0 0 0 0 0 0 0 0 0 0 0 0 0 0 0 0 0 0 0 0 0 0 0 0 0 0 0 0 0 0 0 0 0 0 0 0 0 0 0 0 0 0 0 0 0 0 0 0 0 0 0 0 0 0 0 0 0 0 0 0 0 0 0 0 0 0 0 0 0 0 0 0 0 0 0 0 0 0 0 0 0 0 0 0 0 0 0 0 0 0 0 0 0 0 0 0 0 0 0 0 0 0 0 0 0 0 0 0 0 0 0 0 0 0 0 0 0 0 0 0 0 0 0 0 0 0 0 0 0 0 0 0 0 0 0 0 0 0 0 0 0 0 0 0 0 0 0 0 0 0 0 0 0 0 0 0 0 0 0 0 0 0 0 0 0 0 0 0 0 0 0 0 0 0 0 0 0 0 0 0 0 0 0 0 0 0 0 0 0 0 0 0 0 0 0 0 0 0 0 0 0 0 0 0 0 0 0 0 0 0 0 0 0 0 0 0 0 0 0 0 0 0 0 0 0 0 0 0 0 0 0 0 0 0 0 0 0 0 0 0 0 0 0 0 0 0 0 0 0 0 0 0 0 0 0 0 0 0 0 0 0 0 0 0 0 0 0 0 0 0 0 0 0 0 0 0 0 0 0 0 0 0 0 0 0 0 0 0 0 0 0 0 0 0 0 0 0 0 0 0 0 
0.02 0.0200008 0.0200018 0.0200031 0.0200048 0.020007 0.0200098 0.0200131 0.0200172 0.0200219 0.0200272 0.0200332 0.0200395 0.0200461 0.0200527 0.020059 0.0200644 0.0200685 0.0200706 0.0200705 0.020068 0.0200627 0.0200539 0.0200412 0.0200242 0.0200024 0.0199758 0.019944 0.019907 0.0198646 0.019817 0.0197642 0.0197063 0.0196436 0.0195763 0.0195047 0.0194291 0.01935 0.0192677 0.0191825 0.0190944 0.0190034 0.018909 0.0188104 0.0187063 0.0185949 0.0184738 0.0183399 0.0181889 0.0180147 0.0178054 0.0175429 0.0172109 0.016816 0.0163543 0.0158201 0.0152104 0.0145051 0.0137578 0.0131021 0.0126304 0.011592 0.0103143 0.00895491 0.00758452 0.00674551 0.00490332 0 0 0 0 0 0 0 0 0 0 0 0 0 0 0 0 0 0 0 0 0 0 0 0 0 0 0 0 0 0 0 0 0 0 0 0 0 0 0 0 0 0 0 0 0 0 0 0 0 0 0 0 0 0 0 0 0 0 0 0 0 0 0 0 0 0 0 0 0 0 0 0 0 0 0 0 0 0 0 0 0 0 0 0 0 0 0 0 0 0 0 0 0 0 0 0 0 0 0 0 0 0 0 0 0 0 0 0 0 0 0 0 0 0 0 0 0 0 0 0 0 0 0 0 0 0 0 0 0 0 0 0 0 0 0 0 0 0 0 0 0 0 0 0 0 0 0 0 0 0 0 0 0 0 0 0 0 0 0 0 0 0 0 0 0 0 0 0 0 0 0 0 0 0 0 0 0 0 0 0 0 0 0 0 0 0 0 0 0 0 0 0 0 0 0 0 0 0 0 0 0 0 0 0 0 0 0 0 0 0 0 0 0 0 0 0 0 0 0 0 0 0 0 0 0 0 0 0 0 0 0 0 0 0 0 0 0 0 0 0 0 0 0 0 0 0 0 0 0 0 0 0 0 0 0 0 0 0 0 0 0 0 0 0 0 0 0 0 0 0 0 0 0 0 0 0 0 0 0 0 0 0 0 0 0 0 0 0 0 0 0 0 0 0 0 0 0 0 0 0 0 0 0 0 0 0 0 0 0 0 0 0 0 0 0 0 0 0 0 0 0 0 0 0 0 0 0 0 0 0 0 0 0 0 0 0 0 0 0 0 0 0 0 0 0 0 0 0 0 0 0 0 0 0 0 0 0 0 0 0 0 0 0 0 0 0 0 0 0 0 0 0 0 0 0 0 0 0 0 0 0 0 0 0 0 0 0 0 0 0 0 0 0 0 0 0 0 0 0 0 0 0 0 0 0 0 0 0 0 0 0 0 0 0 0 0 0 0 0 0 0 0 0 0 0 0 0 0 0 0 0 0 0 0 0 0 0 0 0 0 0 0 0 0 0 0 0 0 0 0 0 0 0 0 0 0 0 0 0 0 0 0 0 0 0 0 0 0 0 0 0 0 0 0 0 0 0 0 0 0 0 0 0 0 0 0 0 0 0 0 0 0 0 0 0 0 0 0 0 0 0 0 0 0 0 0 0 0 0 0 0 0 0 0 0 0 0 0 0 0 0 0 0 0 0 0 0 0 0 0 0 0 0 0 0 0 0 0 0 0 0 0 0 0 0 0 0 0 0 0 0 0 0 0 
0.02 0.0200007 0.0200017 0.0200029 0.0200046 0.0200067 0.0200094 0.0200127 0.0200166 0.0200212 0.0200264 0.0200321 0.0200383 0.0200447 0.020051 0.020057 0.0200621 0.0200659 0.020068 0.0200681 0.0200658 0.0200606 0.020052 0.0200396 0.0200229 0.0200017 0.0199757 0.0199447 0.0199085 0.0198672 0.0198208 0.0197692 0.0197127 0.0196515 0.0195859 0.0195161 0.0194425 0.0193654 0.0192853 0.0192022 0.0191164 0.0190275 0.0189352 0.0188384 0.0187359 0.0186259 0.0185058 0.0183721 0.0182199 0.0180415 0.0178255 0.0175583 0.0172309 0.0168423 0.0163882 0.015867 0.0152867 0.0146282 0.0139257 0.013265 0.0125518 0.0115134 0.0103086 0.00895971 0.00762738 0.00642298 0.00500286 0.0035822 0.00268707 0 0 0 0 0 0 0 0 0 0 0 0 0 0 0 0 0 0 0 0 0 0 0 0 0 0 0 0 0 0 0 0 0 0 0 0 0 0 0 0 0 0 0 0 0 0 0 0 0 0 0 0 0 0 0 0 0 0 0 0 0 0 0 0 0 0 0 0 0 0 0 0 0 0 0 0 0 0 0 0 0 0 0 0 0 0 0 0 0 0 0 0 0 0 0 0 0 0 0 0 0 0 0 0 0 0 0 0 0 0 0 0 0 0 0 0 0 0 0 0 0 0 0 0 0 0 0 0 0 0 0 0 0 0 0 0 0 0 0 0 0 0 0 0 0 0 0 0 0 0 0 0 0 0 0 0 0 0 0 0 0 0 0 0 0 0 0 0 0 0 0 0 0 0 0 0 0 0 0 0 0 0 0 0 0 0 0 0 0 0 0 0 0 0 0 0 0 0 0 0 0 0 0 0 0 0 0 0 0 0 0 0 0 0 0 0 0 0 0 0 0 0 0 0 0 0 0 0 0 0 0 0 0 0 0 0 0 0 0 0 0 0 0 0 0 0 0 0 0 0 0 0 0 0 0 0 0 0 0 0 0 0 0 0 0 0 0 0 0 0 0 0 0 0 0 0 0 0 0 0 0 0 0 0 0 0 0 0 0 0 0 0 0 0 0 0 0 0 0 0 0 0 0 0 0 0 0 0 0 0 0 0 0 0 0 0 0 0 0 0 0 0 0 0 0 0 0 0 0 0 0 0 0 0 0 0 0 0 0 0 0 0 0 0 0 0 0 0 0 0 0 0 0 0 0 0 0 0 0 0 0 0 0 0 0 0 0 0 0 0 0 0 0 0 0 0 0 0 0 0 0 0 0 0 0 0 0 0 0 0 0 0 0 0 0 0 0 0 0 0 0 0 0 0 0 0 0 0 0 0 0 0 0 0 0 0 0 0 0 0 0 0 0 0 0 0 0 0 0 0 0 0 0 0 0 0 0 0 0 0 0 0 0 0 0 0 0 0 0 0 0 0 0 0 0 0 0 0 0 0 0 0 0 0 0 0 0 0 0 0 0 0 0 0 0 0 0 0 0 0 0 0 0 0 0 0 0 0 0 0 0 0 0 0 0 0 0 0 0 0 0 0 0 0 0 0 0 0 0 0 0 0 0 0 0 0 0 0 0 0 0 0 0 0 0 0 0 0 0 0 0 0 0 0 0 0 0 0 0 0 0 0 0 0 0 0 0 0 0 0 0 0 
0.02 0.0200007 0.0200016 0.0200028 0.0200044 0.0200064 0.020009 0.0200121 0.0200159 0.0200203 0.0200253 0.0200308 0.0200367 0.0200428 0.0200488 0.0200544 0.0200592 0.0200629 0.020065 0.0200652 0.0200629 0.0200579 0.0200495 0.0200375 0.0200213 0.0200008 0.0199756 0.0199456 0.0199107 0.0198708 0.0198259 0.0197762 0.0197218 0.0196628 0.0195996 0.0195325 0.0194617 0.0193877 0.0193107 0.0192309 0.0191483 0.0190626 0.0189734 0.0188795 0.0187797 0.0186719 0.0185535 0.0184204 0.0182669 0.0180851 0.0178649 0.0175963 0.0172725 0.0168912 0.0164488 0.0159482 0.0153974 0.0147995 0.0141264 0.0134182 0.0125938 0.0115831 0.0103935 0.00909109 0.00776238 0.00647606 0.00507594 0.00372025 0.0025325 0.000684892 -0.000718206 0 0 0 0 0 0 0 0 0 0 0 0 0 0 0 0 0 0 0 0 0 0 0 0 0 0 0 0 0 0 0 0 0 0 0 0 0 0 0 0 0 0 0 0 0 0 0 0 0 0 0 0 0 0 0 0 0 0 0 0 0 0 0 0 0 0 0 0 0 0 0 0 0 0 0 0 0 0 0 0 0 0 0 0 0 0 0 0 0 0 0 0 0 0 0 0 0 0 0 0 0 0 0 0 0 0 0 0 0 0 0 0 0 0 0 0 0 0 0 0 0 0 0 0 0 0 0 0 0 0 0 0 0 0 0 0 0 0 0 0 0 0 0 0 0 0 0 0 0 0 0 0 0 0 0 0 0 0 0 0 0 0 0 0 0 0 0 0 0 0 0 0 0 0 0 0 0 0 0 0 0 0 0 0 0 0 0 0 0 0 0 0 0 0 0 0 0 0 0 0 0 0 0 0 0 0 0 0 0 0 0 0 0 0 0 0 0 0 0 0 0 0 0 0 0 0 0 0 0 0 0 0 0 0 0 0 0 0 0 0 0 0 0 0 0 0 0 0 0 0 0 0 0 0 0 0 0 0 0 0 0 0 0 0 0 0 0 0 0 0 0 0 0 0 0 0 0 0 0 0 0 0 0 0 0 0 0 0 0 0 0 0 0 0 0 0 0 0 0 0 0 0 0 0 0 0 0 0 0 0 0 0 0 0 0 0 0 0 0 0 0 0 0 0 0 0 0 0 0 0 0 0 0 0 0 0 0 0 0 0 0 0 0 0 0 0 0 0 0 0 0 0 0 0 0 0 0 0 0 0 0 0 0 0 0 0 0 0 0 0 0 0 0 0 0 0 0 0 0 0 0 0 0 0 0 0 0 0 0 0 0 0 0 0 0 0 0 0 0 0 0 0 0 0 0 0 0 0 0 0 0 0 0 0 0 0 0 0 0 0 0 0 0 0 0 0 0 0 0 0 0 0 0 0 0 0 0 0 0 0 0 0 0 0 0 0 0 0 0 0 0 0 0 0 0 0 0 0 0 0 0 0 0 0 0 0 0 0 0 0 0 0 0 0 0 0 0 0 0 0 0 0 0 0 0 0 0 0 0 0 0 0 0 0 0 0 0 0 0 0 0 0 0 0 0 0 0 0 0 0 0 0 0 0 0 0 0 0 0 0 0 0 0 0 0 0 0 0 0 0 0 0 0 0 0 0 0 0 0 0 0 0 0 0 0 0 0 0 -0.00396795 0 
0.02 0.0200006 0.0200015 0.0200026 0.0200041 0.020006 0.0200084 0.0200114 0.020015 0.0200191 0.0200239 0.0200291 0.0200347 0.0200405 0.0200462 0.0200515 0.0200561 0.0200596 0.0200616 0.0200618 0.0200597 0.0200549 0.0200469 0.0200354 0.0200199 0.0200003 0.0199763 0.0199476 0.0199143 0.0198763 0.0198336 0.0197863 0.0197346 0.0196787 0.0196187 0.0195551 0.0194881 0.019418 0.0193451 0.0192694 0.0191908 0.0191092 0.0190238 0.0189335 0.0188369 0.0187317 0.018615 0.0184824 0.0183277 0.0181433 0.0179208 0.0176526 0.0173337 0.0169618 0.0165355 0.0160577 0.0155361 0.01497 0.0143313 0.0135778 0.0127312 0.0117184 0.0105554 0.00929083 0.00796681 0.00663532 0.00525718 0.00387673 0.00260552 0.00136749 -0.000494072 -0.00241555 0 0 0 0 0 0 0 0 0 0 0 0 0 0 0 0 0 0 0 0 0 0 0 0 0 0 0 0 0 0 0 0 0 0 0 0 0 0 0 0 0 0 0 0 0 0 0 0 0 0 0 0 0 0 0 0 0 0 0 0 0 0 0 0 0 0 0 0 0 0 0 0 0 0 0 0 0 0 0 0 0 0 0 0 0 0 0 0 0 0 0 0 0 0 0 0 0 0 0 0 0 0 0 0 0 0 0 0 0 0 0 0 0 0 0 0 0 0 0 0 0 0 0 0 0 0 0 0 0 0 0 0 0 0 0 0 0 0 0 0 0 0 0 0 0 0 0 0 0 0 0 0 0 0 0 0 0 0 0 0 0 0 0 0 0 0 0 0 0 0 0 0 0 0 0 0 0 0 0 0 0 0 0 0 0 0 0 0 0 0 0 0 0 0 0 0 0 0 0 0 0 0 0 0 0 0 0 0 0 0 0 0 0 0 0 0 0 0 0 0 0 0 0 0 0 0 0 0 0 0 0 0 0 0 0 0 0 0 0 0 0 0 0 0 0 0 0 0 0 0 0 0 0 0 0 0 0 0 0 0 0 0 0 0 0 0 0 0 0 0 0 0 0 0 0 0 0 0 0 0 0 0 0 0 0 0 0 0 0 0 0 0 0 0 0 0 0 0 0 0 0 0 0 0 0 0 0 0 0 0 0 0 0 0 0 0 0 0 0 0 0 0 0 0 0 0 0 0 0 0 0 0 0 0 0 0 0 0 0 0 0 0 0 0 0 0 0 0 0 0 0 0 0 0 0 0 0 0 0 0 0 0 0 0 0 0 0 0 0 0 0 0 0 0 0 0 0 0 0 0 0 0 0 0 0 0 0 0 0 0 0 0 0 0 0 0 0 0 0 0 0 0 0 0 0 0 0 0 0 0 0 0 0 0 0 0 0 0 0 0 0 0 0 0 0 0 0 0 0 0 0 0 0 0 0 0 0 0 0 0 0 0 0 0 0 0 0 0 0 0 0 0 0 0 0 0 0 0 0 0 0 0 0 0 0 0 0 0 0 0 0 0 0 0 0 0 0 0 0 0 0 0 0 0 0 0 0 0 0 0 0 0 0 0 0 0 0 0 0 0 0 0 0 0 0 0 0 0 0 0 0 0 0 0 0 0 0 0 0 0 0 0 0 0 0 0 0 0 0 0 0 0 0 0 0 0 0 0 0 0 0 0 0 0 0 0 -0.0130783 -0.00675904 -1.0842e-18 
0.02 0.0200006 0.0200013 0.0200024 0.0200037 0.0200055 0.0200078 0.0200106 0.0200139 0.0200179 0.0200223 0.0200272 0.0200325 0.0200379 0.0200433 0.0200483 0.0200527 0.020056 0.020058 0.0200583 0.0200563 0.0200518 0.0200443 0.0200334 0.0200189 0.0200004 0.0199778 0.0199509 0.0199196 0.0198839 0.0198439 0.0197996 0.0197513 0.019699 0.0196431 0.0195837 0.0195212 0.0194559 0.0193877 0.0193169 0.0192432 0.0191662 0.0190852 0.018999 0.0189059 0.0188035 0.0186885 0.0185561 0.0184004 0.0182143 0.0179911 0.017725 0.0174123 0.0170518 0.0166432 0.0161874 0.0156863 0.0151346 0.0145119 0.013775 0.0128999 0.011889 0.0107587 0.00952743 0.00821665 0.00685909 0.00546584 0.00408617 0.00268606 0.00144617 0.000239155 -0.00120364 -0.00442314 0 0 0 0 0 0 0 0 0 0 0 0 0 0 0 0 0 0 0 0 0 0 0 0 0 0 0 0 0 0 0 0 0 0 0 0 0 0 0 0 0 0 0 0 0 0 0 0 0 0 0 0 0 0 0 0 0 0 0 0 0 0 0 0 0 0 0 0 0 0 0 0 0 0 0 0 0 0 0 0 0 0 0 0 0 0 0 0 0 0 0 0 0 0 0 0 0 0 0 0 0 0 0 0 0 0 0 0 0 0 0 0 0 0 0 0 0 0 0 0 0 0 0 0 0 0 0 0 0 0 0 0 0 0 0 0 0 0 0 0 0 0 0 0 0 0 0 0 0 0 0 0 0 0 0 0 0 0 0 0 0 0 0 0 0 0 0 0 0 0 0 0 0 0 0 0 0 0 0 0 0 0 0 0 0 0 0 0 0 0 0 0 0 0 0 0 0 0 0 0 0 0 0 0 0 0 0 0 0 0 0 0 0 0 0 0 0 0 0 0 0 0 0 0 0 0 0 0 0 0 0 0 0 0 0 0 0 0 0 0 0 0 0 0 0 0 0 0 0 0 0 0 0 0 0 0 0 0 0 0 0 0 0 0 0 0 0 0 0 0 0 0 0 0 0 0 0 0 0 0 0 0 0 0 0 0 0 0 0 0 0 0 0 0 0 0 0 0 0 0 0 0 0 0 0 0 0 0 0 0 0 0 0 0 0 0 0 0 0 0 0 0 0 0 0 0 0 0 0 0 0 0 0 0 0 0 0 0 0 0 0 0 0 0 0 0 0 0 0 0 0 0 0 0 0 0 0 0 0 0 0 0 0 0 0 0 0 0 0 0 0 0 0 0 0 0 0 0 0 0 0 0 0 0 0 0 0 0 0 0 0 0 0 0 0 0 0 0 0 0 0 0 0 0 0 0 0 0 0 0 0 0 0 0 0 0 0 0 0 0 0 0 0 0 0 0 0 0 0 0 0 0 0 0 0 0 0 0 0 0 0 0 0 0 0 0 0 0 0 0 0 0 0 0 0 0 0 0 0 0 0 0 0 0 0 0 0 0 0 0 0 0 0 0 0 0 0 0 0 0 0 0 0 0 0 0 0 0 0 0 0 0 0 0 0 0 0 0 0 0 0 0 0 0 0 0 0 0 0 0 0 0 0 0 0 0 0 0 0 0 0 0 0 0 0 0 0 0 0 0 0 0 0 0 0 0 0 0 0 0 -0.0298118 -0.0309533 -0.0296113 -0.0260682 -0.0214777 -0.0154969 -0.00851803 2.1684e-19 
0.02 0.0200005 0.0200012 0.0200021 0.0200034 0.020005 0.0200071 0.0200097 0.0200128 0.0200164 0.0200206 0.0200252 0.0200301 0.0200352 0.0200402 0.020045 0.0200491 0.0200523 0.0200543 0.0200546 0.0200529 0.0200487 0.0200418 0.0200317 0.0200183 0.0200011 0.0199802 0.0199553 0.0199264 0.0198935 0.0198566 0.0198159 0.0197714 0.0197234 0.0196721 0.0196176 0.0195603 0.0195003 0.0194376 0.0193723 0.019304 0.0192322 0.0191561 0.0190742 0.0189848 0.0188852 0.0187717 0.0186396 0.0184832 0.0182965 0.018074 0.0178113 0.0175061 0.0171576 0.0167658 0.0163288 0.0158411 0.015292 0.0146591 0.0139206 0.0130569 0.0120694 0.0109681 0.00976268 0.00846405 0.00709513 0.00568036 0.00425005 0.00284207 0.00147003 0.000335071 -0.000755068 -0.00264673 -0.00656667 0 0 0 0 0 0 0 0 0 0 0 0 0 0 0 0 0 0 0 0 0 0 0 0 0 0 0 0 0 0 0 0 0 0 0 0 0 0 0 0 0 0 0 0 0 0 0 0 0 0 0 0 0 0 0 0 0 0 0 0 0 0 0 0 0 0 0 0 0 0 0 0 0 0 0 0 0 0 0 0 0 0 0 0 0 0 0 0 0 0 0 0 0 0 0 0 0 0 0 0 0 0 0 0 0 0 0 0 0 0 0 0 0 0 0 0 0 0 0 0 0 0 0 0 0 0 0 0 0 0 0 0 0 0 0 0 0 0 0 0 0 0 0 0 0 0 0 0 0 0 0 0 0 0 0 0 0 0 0 0 0 0 0 0 0 0 0 0 0 0 0 0 0 0 0 0 0 0 0 0 0 0 0 0 0 0 0 0 0 0 0 0 0 0 0 0 0 0 0 0 0 0 0 0 0 0 0 0 0 0 0 0 0 0 0 0 0 0 0 0 0 0 0 0 0 0 0 0 0 0 0 0 0 0 0 0 0 0 0 0 0 0 0 0 0 0 0 0 0 0 0 0 0 0 0 0 0 0 0 0 0 0 0 0 0 0 0 0 0 0 0 0 0 0 0 0 0 0 0 0 0 0 0 0 0 0 0 0 0 0 0 0 0 0 0 0 0 0 0 0 0 0 0 0 0 0 0 0 0 0 0 0 0 0 0 0 0 0 0 0 0 0 0 0 0 0 0 0 0 0 0 0 0 0 0 0 0 0 0 0 0 0 0 0 0 0 0 0 0 0 0 0 0 0 0 0 0 0 0 0 0 0 0 0 0 0 0 0 0 0 0 0 0 0 0 0 0 0 0 0 0 0 0 0 0 0 0 0 0 0 0 0 0 0 0 0 0 0 0 0 0 0 0 0 0 0 0 0 0 0 0 0 0 0 0 0 0 0 0 0 0 0 0 0 0 0 0 0 0 0 0 0 0 0 0 0 0 0 0 0 0 0 0 0 0 0 0 0 0 0 0 0 0 0 0 0 0 0 0 0 0 0 -0.0550119 -0.0540411 -0.0574943 -0.0589903 -0.0590081 -0.0590256 -0.0584766 -0.0574843 -0.0561277 -0.0546853 -0.053371 -0.0520724 -0.0507788 -0.0495055 -0.0482672 -0.0468909 -0.0454993 -0.044237 -0.0431377 -0.0421881 -0.0413929 -0.0407386 -0.0402212 -0.0398305 -0.0395538 -0.0393818 -0.0393019 -0.0393013 -0.0393671 -0.0394857 -0.0396441 -0.0398298 -0.0400317 -0.0402404 -0.0404482 -0.0406482 -0.040832 -0.0409741 -0.0409925 -0.0409131 -0.0409996 -0.0411505 -0.0413189 -0.0414833 -0.0416325 -0.0417607 -0.041865 -0.0419435 -0.0419951 -0.0420192 -0.0420155 -0.041984 -0.0419249 -0.0418383 -0.0417246 -0.0415844 -0.0414189 -0.0412292 -0.041017 -0.0407841 -0.0405328 -0.0402652 -0.0399836 -0.0396907 -0.0393886 -0.03908 -0.0387668 -0.0384507 -0.0381325 -0.037812 -0.037487 -0.0371532 -0.0368012 -0.0364144 -0.0359607 -0.0353413 -0.034387 -0.0329002 -0.0316732 -0.0297182 -0.0264605 -0.0220853 -0.0164906 -0.00944017 2.1684e-19 
0.02 0.0200004 0.020001 0.0200019 0.020003 0.0200045 0.0200064 0.0200087 0.0200116 0.0200149 0.0200188 0.0200231 0.0200276 0.0200324 0.0200371 0.0200416 0.0200455 0.0200486 0.0200505 0.0200509 0.0200495 0.0200457 0.0200395 0.0200304 0.0200181 0.0200025 0.0199835 0.0199609 0.0199346 0.0199048 0.0198714 0.0198346 0.0197945 0.0197512 0.019705 0.019656 0.0196044 0.0195503 0.0194936 0.0194342 0.0193717 0.0193055 0.0192346 0.0191573 0.0190716 0.0189747 0.0188627 0.0187311 0.0185747 0.0183883 0.0181676 0.0179095 0.0176124 0.0172752 0.0168969 0.016473 0.0159941 0.0154453 0.0148105 0.0140699 0.0132134 0.0122403 0.0111556 0.00996557 0.00867616 0.00729972 0.00585533 0.0043739 0.00290065 0.00145294 0.000133401 -0.000921864 -0.00210685 -0.00454226 -0.0092115 0 0 0 0 0 0 0 0 0 0 0 0 0 0 0 0 0 0 0 0 0 0 0 0 0 0 0 0 0 0 0 0 0 0 0 0 0 0 0 0 0 0 0 0 0 0 0 0 0 0 0 0 0 0 0 0 0 0 0 0 0 0 0 0 0 0 0 0 0 0 0 0 0 0 0 0 0 0 0 0 0 0 0 0 0 0 0 0 0 0 0 0 0 0 0 0 0 0 0 0 0 0 0 0 0 0 0 0 0 0 0 0 0 0 0 0 0 0 0 0 0 0 0 0 0 0 0 0 0 0 0 0 0 0 0 0 0 0 0 0 0 0 0 0 0 0 0 0 0 0 0 0 0 0 0 0 0 0 0 0 0 0 0 0 0 0 0 0 0 0 0 0 0 0 0 0 0 0 0 0 0 0 0 0 0 0 0 0 0 0 0 0 0 0 0 0 0 0 0 0 0 0 0 0 0 0 0 0 0 0 0 0 0 0 0 0 0 0 0 0 0 0 0 0 0 0 0 0 0 0 0 0 0 0 0 0 0 0 0 0 0 0 0 0 0 0 0 0 0 0 0 0 0 0 0 0 0 0 0 0 0 0 0 0 0 0 0 0 0 0 0 0 0 0 0 0 0 0 0 0 0 0 0 0 0 0 0 0 0 0 0 0 0 0 0 0 0 0 0 0 0 0 0 0 0 0 0 0 0 0 0 0 0 0 0 0 0 0 0 0 0 0 0 0 0 0 0 0 0 0 0 0 0 0 0 0 0 0 0 0 0 0 0 0 0 0 0 0 0 0 0 0 0 0 0 0 0 0 0 0 0 0 0 0 0 0 0 0 0 0 0 0 0 0 0 0 0 0 0 0 0 0 0 0 0 0 0 0 0 0 0 0 0 0 0 0 0 0 0 0 0 0 0 0 0 0 0 0 0 0 0 0 0 0 0 0 0 0 0 0 0 0 0 0 0 0 0 0 0 0 0 0 0 0 0 0 0 0 0 0 0 0 0 0 0 0 0 0 0 0 0 0 0 0 0 0 0 0 -0.045024 -0.0447696 -0.0491816 -0.0530288 -0.0564522 -0.0574729 -0.0586396 -0.0587686 -0.0587273 -0.0581967 -0.057216 -0.0559865 -0.0546313 -0.0533113 -0.0519977 -0.050695 -0.0494181 -0.0481776 -0.046933 -0.0456173 -0.0443993 -0.043303 -0.0423461 -0.0415385 -0.0408704 -0.0403377 -0.0399326 -0.039642 -0.0394571 -0.0393658 -0.0393547 -0.0394117 -0.039523 -0.0396756 -0.0398573 -0.0400568 -0.0402646 -0.0404724 -0.0406725 -0.0408532 -0.0409875 -0.0410467 -0.0410644 -0.0411432 -0.0412622 -0.0413975 -0.041533 -0.0416576 -0.0417649 -0.0418513 -0.0419145 -0.041953 -0.041966 -0.0419531 -0.0419142 -0.0418494 -0.0417591 -0.0416435 -0.0415036 -0.0413403 -0.0411549 -0.040949 -0.0407244 -0.0404829 -0.0402265 -0.0399574 -0.0396774 -0.0393888 -0.0390935 -0.0387933 -0.0384896 -0.0381828 -0.0378724 -0.0375566 -0.0372306 -0.0368848 -0.0364976 -0.0360187 -0.0353582 -0.0344373 -0.0332218 -0.0318022 -0.0297073 -0.0266085 -0.0224644 -0.0171051 -0.00999402 -2.1684e-18 
0.02 0.0200004 0.0200009 0.0200016 0.0200026 0.0200039 0.0200056 0.0200077 0.0200103 0.0200134 0.020017 0.0200209 0.0200252 0.0200296 0.020034 0.0200382 0.0200419 0.0200449 0.0200468 0.0200473 0.0200462 0.020043 0.0200375 0.0200294 0.0200185 0.0200046 0.0199876 0.0199675 0.0199441 0.0199176 0.019888 0.0198555 0.01982 0.0197819 0.0197412 0.019698 0.0196525 0.0196046 0.0195543 0.0195012 0.0194449 0.0193845 0.0193188 0.0192462 0.0191642 0.0190699 0.0189596 0.0188288 0.0186731 0.0184881 0.0182703 0.0180175 0.0177281 0.0174008 0.0170324 0.0166163 0.0161415 0.0155927 0.0149538 0.0142128 0.0133607 0.0123943 0.0113142 0.0101233 0.00882583 0.007429 0.00594548 0.00439411 0.00281121 0.00126222 -0.000216436 -0.00142497 -0.00251061 -0.00380678 -0.00650837 -0.0128153 0 0 0 0 0 0 0 0 0 0 0 0 0 0 0 0 0 0 0 0 0 0 0 0 0 0 0 0 0 0 0 0 0 0 0 0 0 0 0 0 0 0 0 0 0 0 0 0 0 0 0 0 0 0 0 0 0 0 0 0 0 0 0 0 0 0 0 0 0 0 0 0 0 0 0 0 0 0 0 0 0 0 0 0 0 0 0 0 0 0 0 0 0 0 0 0 0 0 0 0 0 0 0 0 0 0 0 0 0 0 0 0 0 0 0 0 0 0 0 0 0 0 0 0 0 0 0 0 0 0 0 0 0 0 0 0 0 0 0 0 0 0 0 0 0 0 0 0 0 0 0 0 0 0 0 0 0 0 0 0 0 0 0 0 0 0 0 0 0 0 0 0 0 0 0 0 0 0 0 0 0 0 0 0 0 0 0 0 0 0 0 0 0 0 0 0 0 0 0 0 0 0 0 0 0 0 0 0 0 0 0 0 0 0 0 0 0 0 0 0 0 0 0 0 0 0 0 0 0 0 0 0 0 0 0 0 0 0 0 0 0 0 0 0 0 0 0 0 0 0 0 0 0 0 0 0 0 0 0 0 0 0 0 0 0 0 0 0 0 0 0 0 0 0 0 0 0 0 0 0 0 0 0 0 0 0 0 0 0 0 0 0 0 0 0 0 0 0 0 0 0 0 0 0 0 0 0 0 0 0 0 0 0 0 0 0 0 0 0 0 0 0 0 0 0 0 0 0 0 0 0 0 0 0 0 0 0 0 0 0 0 0 0 0 0 0 0 0 0 0 0 0 0 0 0 0 0 0 0 0 0 0 0 0 0 0 0 0 0 0 0 0 0 0 0 0 0 0 0 0 0 0 0 0 0 0 0 0 0 0 0 0 0 0 0 0 0 0 0 0 0 0 0 0 0 0 0 0 0 0 0 0 0 0 0 0 0 0 0 0 0 0 0 0 0 0 0 0 0 0 0 0 0 0 0 0 0 0 0 0 0 0 0 0 0 0 0 0 0 0 0 0 0 0 0 0 -0.0454457 -0.0460463 -0.0479376 -0.0508829 -0.0530487 -0.0555531 -0.0569024 -0.0577936 -0.0581545 -0.0580638 -0.0575787 -0.0566605 -0.0555332 -0.0542831 -0.053022 -0.051756 -0.0504977 -0.0492644 -0.0480682 -0.0468999 -0.0457302 -0.0445794 -0.0435138 -0.0425668 -0.0417511 -0.0410695 -0.0405193 -0.0400941 -0.0397838 -0.0395791 -0.0394686 -0.0394396 -0.0394796 -0.0395756 -0.0397145 -0.0398842 -0.0400736 -0.0402731 -0.0404744 -0.0406687 -0.0408426 -0.0409757 -0.0410582 -0.0411151 -0.041195 -0.0412988 -0.0414151 -0.0415321 -0.0416406 -0.0417344 -0.0418096 -0.0418635 -0.0418946 -0.0419016 -0.0418841 -0.0418418 -0.0417747 -0.0416831 -0.0415672 -0.041428 -0.0412664 -0.0410838 -0.0408817 -0.0406618 -0.0404261 -0.0401763 -0.0399145 -0.0396426 -0.0393624 -0.0390758 -0.0387844 -0.0384891 -0.0381903 -0.0378873 -0.0375776 -0.037256 -0.0369106 -0.0365137 -0.0360138 -0.0353458 -0.0344616 -0.033318 -0.031827 -0.029706 -0.02673 -0.0227655 -0.0175358 -0.0103541 -6.50521e-19 
0.02 0.0200003 0.0200007 0.0200013 0.0200022 0.0200033 0.0200049 0.0200068 0.0200091 0.0200119 0.0200152 0.0200188 0.0200227 0.0200268 0.0200309 0.0200349 0.0200384 0.0200413 0.0200432 0.0200439 0.0200431 0.0200405 0.0200358 0.0200288 0.0200193 0.0200073 0.0199925 0.019975 0.0199547 0.0199317 0.0199062 0.0198781 0.0198476 0.0198148 0.0197798 0.0197428 0.0197036 0.0196623 0.0196185 0.019572 0.0195219 0.0194674 0.0194071 0.019339 0.0192607 0.0191691 0.0190606 0.0189313 0.0187771 0.0185944 0.0183804 0.0181332 0.017851 0.0175314 0.0171694 0.016757 0.0162822 0.0157313 0.0150903 0.0143476 0.0134949 0.0125267 0.0114402 0.0102341 0.00890934 0.00746969 0.00592217 0.00427803 0.00256525 0.000837693 -0.000834335 -0.00231523 -0.00351413 -0.00450774 -0.00610161 -0.00890851 -0.0162366 0 0 0 0 0 0 0 0 0 0 0 0 0 0 0 0 0 0 0 0 0 0 0 0 0 0 0 0 0 0 0 0 0 0 0 0 0 0 0 0 0 0 0 0 0 0 0 0 0 0 0 0 0 0 0 0 0 0 0 0 0 0 0 0 0 0 0 0 0 0 0 0 0 0 0 0 0 0 0 0 0 0 0 0 0 0 0 0 0 0 0 0 0 0 0 0 0 0 0 0 0 0 0 0 0 0 0 0 0 0 0 0 0 0 0 0 0 0 0 0 0 0 0 0 0 0 0 0 0 0 0 0 0 0 0 0 0 0 0 0 0 0 0 0 0 0 0 0 0 0 0 0 0 0 0 0 0 0 0 0 0 0 0 0 0 0 0 0 0 0 0 0 0 0 0 0 0 0 0 0 0 0 0 0 0 0 0 0 0 0 0 0 0 0 0 0 0 0 0 0 0 0 0 0 0 0 0 0 0 0 0 0 0 0 0 0 0 0 0 0 0 0 0 0 0 0 0 0 0 0 0 0 0 0 0 0 0 0 0 0 0 0 0 0 0 0 0 0 0 0 0 0 0 0 0 0 0 0 0 0 0 0 0 0 0 0 0 0 0 0 0 0 0 0 0 0 0 0 0 0 0 0 0 0 0 0 0 0 0 0 0 0 0 0 0 0 0 0 0 0 0 0 0 0 0 0 0 0 0 0 0 0 0 0 0 0 0 0 0 0 0 0 0 0 0 0 0 0 0 0 0 0 0 0 0 0 0 0 0 0 0 0 0 0 0 0 0 0 0 0 0 0 0 0 0 0 0 0 0 0 0 0 0 0 0 0 0 0 0 0 0 0 0 0 0 0 0 0 0 0 0 0 0 0 0 0 0 0 0 0 0 0 0 0 0 0 0 0 0 0 0 0 0 0 0 0 0 0 0 0 0 0 0 0 0 0 0 0 0 0 0 0 0 0 0 0 0 0 0 0 0 0 0 0 0 0 0 0 0 0 0 0 0 0 0 0 0 0 0 0 0 0 0 -0.0460019 -0.0458832 -0.0478925 -0.04902 -0.0501792 -0.0519535 -0.0537237 -0.0550204 -0.0559769 -0.0567627 -0.0571667 -0.0570881 -0.0566622 -0.0558696 -0.0548747 -0.0537542 -0.0525888 -0.0514036 -0.0502191 -0.0490538 -0.0479241 -0.0468323 -0.0457664 -0.044719 -0.0437239 -0.0428122 -0.0420081 -0.0413234 -0.0407602 -0.0403155 -0.0399834 -0.039755 -0.0396204 -0.0395679 -0.0395852 -0.0396597 -0.0397787 -0.0399304 -0.0401037 -0.0402893 -0.0404785 -0.0406622 -0.0408278 -0.0409611 -0.0410576 -0.0411331 -0.0412132 -0.041305 -0.0414043 -0.0415038 -0.0415964 -0.0416766 -0.0417407 -0.0417858 -0.0418099 -0.0418119 -0.041791 -0.0417468 -0.0416791 -0.041588 -0.0414738 -0.0413372 -0.0411792 -0.041001 -0.0408042 -0.0405904 -0.0403614 -0.040119 -0.0398651 -0.0396015 -0.03933 -0.0390522 -0.0387695 -0.0384825 -0.0381914 -0.0378951 -0.0375905 -0.0372709 -0.0369217 -0.0365133 -0.0360013 -0.0353366 -0.0344735 -0.0333464 -0.0318317 -0.0297293 -0.026855 -0.0230191 -0.0178565 -0.0106027 -1.51788e-18 
0.02 0.0200002 0.0200006 0.0200011 0.0200018 0.0200028 0.0200041 0.0200058 0.020008 0.0200105 0.0200134 0.0200168 0.0200204 0.0200242 0.020028 0.0200317 0.0200351 0.0200379 0.0200398 0.0200407 0.0200403 0.0200383 0.0200344 0.0200286 0.0200207 0.0200105 0.019998 0.0199832 0.0199662 0.0199469 0.0199254 0.019902 0.0198766 0.0198493 0.0198203 0.0197895 0.0197568 0.0197221 0.019685 0.019645 0.0196013 0.0195526 0.0194975 0.0194339 0.0193593 0.0192706 0.0191644 0.0190371 0.0188852 0.0187059 0.0184965 0.018255 0.0179792 0.0176654 0.0173077 0.0168967 0.0164208 0.0158667 0.0152217 0.0144748 0.0136168 0.0126399 0.0115373 0.0103035 0.00893503 0.00743133 0.00579497 0.0040313 0.00215665 0.000220545 -0.00169849 -0.00351068 -0.00505754 -0.00638044 -0.00746999 -0.00895457 -0.0119453 -0.0192144 0 0 0 0 0 0 0 0 0 0 0 0 0 0 0 0 0 0 0 0 0 0 0 0 0 0 0 0 0 0 0 0 0 0 0 0 0 0 0 0 0 0 0 0 0 0 0 0 0 0 0 0 0 0 0 0 0 0 0 0 0 0 0 0 0 0 0 0 0 0 0 0 0 0 0 0 0 0 0 0 0 0 0 0 0 0 0 0 0 0 0 0 0 0 0 0 0 0 0 0 0 0 0 0 0 0 0 0 0 0 0 0 0 0 0 0 0 0 0 0 0 0 0 0 0 0 0 0 0 0 0 0 0 0 0 0 0 0 0 0 0 0 0 0 0 0 0 0 0 0 0 0 0 0 0 0 0 0 0 0 0 0 0 0 0 0 0 0 0 0 0 0 0 0 0 0 0 0 0 0 0 0 0 0 0 0 0 0 0 0 0 0 0 0 0 0 0 0 0 0 0 0 0 0 0 0 0 0 0 0 0 0 0 0 0 0 0 0 0 0 0 0 0 0 0 0 0 0 0 0 0 0 0 0 0 0 0 0 0 0 0 0 0 0 0 0 0 0 0 0 0 0 0 0 0 0 0 0 0 0 0 0 0 0 0 0 0 0 0 0 0 0 0 0 0 0 0 0 0 0 0 0 0 0 0 0 0 0 0 0 0 0 0 0 0 0 0 0 0 0 0 0 0 0 0 0 0 0 0 0 0 0 0 0 0 0 0 0 0 0 0 0 0 0 0 0 0 0 0 0 0 0 0 0 0 0 0 0 0 0 0 0 0 0 0 0 0 0 0 0 0 0 0 0 0 0 0 0 0 0 0 0 0 0 0 0 0 0 0 0 0 0 0 0 0 0 0 0 0 0 0 0 0 0 0 0 0 0 0 0 0 0 0 0 0 0 0 0 0 0 0 0 0 0 0 0 0 0 0 0 0 0 0 0 0 0 0 0 0 0 0 0 0 0 0 0 0 0 0 0 0 0 0 0 0 0 0 0 0 0 0 0 0 0 0 0 0 0 0 0 -0.0482433 -0.0432094 -0.0456966 -0.048741 -0.0494995 -0.0503246 -0.0509563 -0.0520898 -0.0530219 -0.0539689 -0.0548345 -0.0555074 -0.0558805 -0.0558556 -0.0555223 -0.0548893 -0.0540542 -0.0530798 -0.0520378 -0.0509579 -0.0498695 -0.0487909 -0.047743 -0.046732 -0.0457575 -0.0448118 -0.0439019 -0.0430511 -0.0422821 -0.0416103 -0.0410444 -0.0405866 -0.0402346 -0.0399823 -0.0398215 -0.039742 -0.0397323 -0.0397806 -0.0398747 -0.0400029 -0.0401548 -0.0403209 -0.0404927 -0.0406612 -0.0408157 -0.0409459 -0.0410484 -0.0411313 -0.0412092 -0.0412895 -0.0413722 -0.0414537 -0.0415293 -0.0415946 -0.0416462 -0.0416813 -0.0416979 -0.0416947 -0.0416708 -0.0416255 -0.0415585 -0.0414696 -0.0413591 -0.0412274 -0.0410754 -0.0409041 -0.040715 -0.0405096 -0.0402896 -0.0400567 -0.0398125 -0.0395589 -0.0392974 -0.0390294 -0.0387562 -0.0384781 -0.038195 -0.0379051 -0.0376044 -0.0372844 -0.0369287 -0.0365098 -0.0359903 -0.0353287 -0.0344748 -0.0333512 -0.0318363 -0.0297695 -0.0269787 -0.0232326 -0.0181025 -0.0107824 -8.67362e-19 
0.02 0.0200002 0.0200004 0.0200008 0.0200014 0.0200023 0.0200034 0.0200049 0.0200068 0.0200091 0.0200118 0.0200148 0.0200181 0.0200216 0.0200252 0.0200287 0.0200319 0.0200346 0.0200366 0.0200378 0.0200377 0.0200364 0.0200335 0.0200289 0.0200225 0.0200143 0.0200042 0.0199922 0.0199784 0.0199628 0.0199456 0.0199268 0.0199065 0.0198849 0.0198618 0.0198373 0.0198111 0.0197831 0.0197526 0.0197191 0.0196816 0.0196386 0.0195887 0.0195295 0.0194586 0.019373 0.0192696 0.0191451 0.0189965 0.0188212 0.0186169 0.0183814 0.0181114 0.0178025 0.0174476 0.0170372 0.0165595 0.0160023 0.015353 0.0146002 0.0137331 0.0127412 0.0116144 0.0103432 0.00891943 0.00733695 0.00559313 0.00368982 0.00163518 -0.000537961 -0.00276432 -0.00494501 -0.00699023 -0.00877525 -0.010259 -0.0116308 -0.0132077 -0.0172359 -0.025706 0 0 0 0 0 0 0 0 0 0 0 0 0 0 0 0 0 0 0 0 0 0 0 0 0 0 0 0 0 0 0 0 0 0 0 0 0 0 0 0 0 0 0 0 0 0 0 0 0 0 0 0 0 0 0 0 0 0 0 0 0 0 0 0 0 0 0 0 0 0 0 0 0 0 0 0 0 0 0 0 0 0 0 0 0 0 0 0 0 0 0 0 0 0 0 0 0 0 0 0 0 0 0 0 0 0 0 0 0 0 0 0 0 0 0 0 0 0 0 0 0 0 0 0 0 0 0 0 0 0 0 0 0 0 0 0 0 0 0 0 0 0 0 0 0 0 0 0 0 0 0 0 0 0 0 0 0 0 0 0 0 0 0 0 0 0 0 0 0 0 0 0 0 0 0 0 0 0 0 0 0 0 0 0 0 0 0 0 0 0 -0.109325 -0.126448 -0.135986 -0.141035 -0.147428 -0.148984 -0.163666 0 0 0 0 0 0 0 0 0 0 0 0 0 0 0 0 0 0 0 0 0 0 0 0 0 0 0 0 0 0 0 0 0 0 0 0 0 0 0 0 0 0 0 0 0 0 0 0 0 0 0 0 0 0 0 0 0 0 0 0 0 0 0 0 0 0 0 0 0 0 0 0 0 0 0 0 0 0 0 0 0 0 0 0 0 0 0 0 0 0 0 0 0 0 0 0 0 0 0 0 0 0 0 0 0 0 0 0 0 0 0 0 0 0 0 0 0 0 0 0 0 0 0 0 0 0 0 0 0 0 0 0 0 0 0 0 0 0 0 0 0 0 0 0 0 0 0 0 0 0 0 0 0 0 0 0 0 0 0 0 0 0 0 0 0 0 0 0 0 0 0 0 0 0 0 0 0 0 0 0 0 0 0 0 0 0 0 0 0 0 0 0 0 0 0 0 0 0 0 0 0 0 0 0 0 0 0 0 0 0 0 0 0 0 0 0 0 0 0 0 0 0 0 0 0 0 0 0 0 0 0 0 0 0 0 0 0 0 0 0 0 0 0 0 0 0 0 0 0 0 -0.0491756 -0.0475851 -0.0483294 -0.0500636 -0.0487605 -0.050321 -0.0508239 -0.0508976 -0.051246 -0.051849 -0.0522936 -0.052917 -0.0535572 -0.0541067 -0.0544244 -0.0544588 -0.054241 -0.053767 -0.0530976 -0.0522793 -0.0513789 -0.050424 -0.0494501 -0.0484752 -0.0475229 -0.0466009 -0.0457154 -0.0448623 -0.0440429 -0.0432666 -0.0425497 -0.041908 -0.0413535 -0.0408927 -0.0405271 -0.0402541 -0.0400679 -0.0399604 -0.0399214 -0.03994 -0.0400049 -0.040105 -0.0402303 -0.0403714 -0.0405203 -0.0406686 -0.0408074 -0.0409288 -0.0410289 -0.0411112 -0.0411836 -0.0412519 -0.0413183 -0.0413817 -0.0414396 -0.0414889 -0.0415268 -0.0415508 -0.0415593 -0.0415507 -0.041524 -0.0414784 -0.0414132 -0.0413283 -0.0412235 -0.041099 -0.0409555 -0.0407938 -0.0406151 -0.0404207 -0.0402121 -0.0399908 -0.0397584 -0.0395165 -0.0392664 -0.0390095 -0.0387467 -0.0384781 -0.0382032 -0.0379193 -0.0376212 -0.037299 -0.0369357 -0.036507 -0.0359813 -0.0353197 -0.0344689 -0.0333486 -0.0318461 -0.0298204 -0.0270977 -0.023414 -0.0182976 -0.010919 -4.33681e-19 