# vtk DataFile Version 2.0
iteration 837
ASCII

DATASET STRUCTURED_POINTS
DIMENSIONS 621 64 1
ORIGIN 0 0 0
SPACING 0.00161031 0.00161031 0.00161031

POINT_DATA 39744
SCALARS P float 1
LOOKUP_TABLE default
0 0 0 0 0 0 0 0 0 0 0 0 0 0 0 0 0 0 0 0 0 0 0 0 0 0 0 0 0 0 0 0 0 0 0 0 0 0 0 0 0 0 0 0 0 0 0 0 0 0 0 0 0 0 0 0 0 0 0 0 0 0 0 0 0 0 0 0 0 0 0 0 0 0 0 0 0 0 0 0 0 0 0 0 0 0 0 0 0 0 0 0 0 0 0 0 0 0 0 0 0 0 0 0 0 0 0 0 0 0 0 0 0 0 0 0 0 0 0 0 0 0 0 0 0 0 0 0 0 0 0 0 0 0 0 0 0 0 0 0 0 0 0 0 0 0 0 0 0 0 0 0 0 0 0 0 0 0 0 0 0 0 0 0 0 0 0 0 0 0 0 0 0 0 0 0 0 0 0 0 0 0 0 0 0 0 0 0 0 0 0 0 0 0 0 0 0 0 0 0 0 0 0 0 0 0 0 0 0 0 0 0 0 0 0 0 0 0 0 0 0 0 0 0 0 0 0 0 0 0 0 0 0 0 0 0 0 0 0 0 0 0 0 0 0 0 0 0 0 0 0 0 0 0 0 0 0 0 0 0 0 0 0 0 0 0 0 0 0 0 0 0 0 0 0 0 0 0 0 0 0 0 0 0 0 0 0 0 0 0 0 0 0 0 0 0 0 0 0 0 0 0 0 0 0 0 0 0 0 0 0 0 0 0 0 0 0 0 0 0 0 0 0 0 0 0 0 0 0 0 0 0 0 0 0 0 0 0 0 0 0 0 0 0 0 0 0 0 0 0 0 0 0 0 0 0 0 0 0 0 0 0 0 0 0 0 0 0 0 0 0 0 0 0 0 0 0 0 0 0 0 0 0 0 0 0 0 0 0 0 0 0 0 0 0 0 0 0 0 0 0 0 0 0 0 0 0 0 0 0 0 0 0 0 0 0 0 0 0 0 0 0 0 0 0 0 0 0 0 0 0 0 0 0 0 0 0 0 0 0 0 0 0 0 0 0 0 0 0 0 0 0 0 0 0 0 0 0 0 0 0 0 0 0 0 0 0 0 0 0 0 0 0 0 0 0 0 0 0 0 0 0 0 0 0 0 0 0 0 0 0 0 0 0 0 0 0 0 0 0 0 0 0 0 0 0 0 0 0 0 0 0 0 0 0 0 0 0 0 0 0 0 0 0 0 0 0 0 0 0 0 0 0 0 0 0 0 0 0 0 0 0 0 0 0 0 0 0 0 0 0 0 0 0 0 0 0 0 0 0 0 0 0 0 0 0 0 0 0 0 0 0 0 0 0 0 0 0 0 0 0 0 0 0 0 0 0 0 0 0 0 0 0 0 0 0 0 0 0 0 0 0 0 0 0 0 0 0 0 0 0 0 0 0 0 0 0 0 0 0 0 
0.02 0.02 0.02 0.02 0.02 0.02 0.02 0.02 0.02 0.02 0.02 0.02 0.02 0.02 0.02 0.02 0.02 0.02 0.02 0.02 0.02 0.02 0.02 0.02 0.02 0.02 0.0199999 0.0199999 0.0199999 0.0199999 0.0199999 0.0199999 0.0199998 0.0199998 0.0199998 0.0199997 0.0199997 0.0199996 0.0199996 0.0199995 0.0199994 0.0199993 0.0199992 0.0199991 0.019999 0.0199988 0.0199986 0.0199984 0.0199982 0.0199979 0.0199976 0.0199972 0.0199968 0.0199964 0.0199959 0.0199953 0.0199947 0.019994 0.0199932 0.0199924 0.0199914 0.0199903 0.0199892 0.0199879 0.0199865 0.0199849 0.0199832 0.0199814 0.0199793 0.0199771 0.0199748 0.0199722 0.0199694 0.0199663 0.019963 0.0199595 0.0199557 0.0199516 0.0199472 0.0199425 0.0199374 0.019932 0.0199262 0.01992 0.0199134 0.0199063 0.0198988 0.0198907 0.0198821 0.019873 0.0198633 0.0198529 0.0198418 0.01983 0.0198174 0.0198041 0.0197898 0.0197746 0.0197584 0.0197411 0.0197226 0.0197029 0.0196819 0.0196594 0.0196354 0.0196097 0.0195823 0.019553 0.0195217 0.0194883 0.0194527 0.0194147 0.0193745 0.0193318 0.0192867 0.0192393 0.0191896 0.0191379 0.0190843 0.0190291 0.0189728 0.0189158 0.0188587 0.0188019 0.0187462 0.0186922 0.0186406 0.0185901 0.0185369 0.0184906 0.018451 0.0184187 0.018394 0.0183768 0.0183676 0.0183666 0.018374 0.0183898 0.0184141 0.0184465 0.0184868 0.0185342 0.018588 0.0186473 0.0187109 0.0187773 0.018845 0.0189123 0.0189773 0.019038 0.0190923 0.0191383 0.0191737 0.0191968 0.0192055 0.0191981 0.0191729 0.019128 0.0190612 0.01897 0.0188509 0.0186996 0.0185109 0.0182789 0.0179963 0.0176561 0.0172498 0.0167723 0.0162353 0.0156945 0.0150913 0.0151681 0.0171064 0 0 0 0 0 0 0 0 0 0 0 0 0 0 0 0 0 0 0 0 0 0 0 0 0 0 0 0 0 0 0 0 0 0 0 0 0 0 0 0 0 0 0 0 0 0 0 0 0 0 0 0 0 0 0 0 0 0 0 0 0 0 0 0 0 0 0 0 0 0 0 0 0 0 0 0 0 0 0 0 0 0 0 0 0 0 0 0 0 0 0 0 0 0 0 0 0 0 0 0 0 0 0 0 0 0 0 0 0 0 0 0 0 0 0 0 0 0 0 0 0 0 0 0 0 0 0 0 0 0 0 0 0 0 0 0 0 0 0 0 0 0 0 0 0 0 0 0 0 0 0 0 0 0 0 0 0 0 0 0 0 0 0 0 0 0 0 0 0 0 0 0 0 0 0 0 0 0 0 0 0 0 0 0 0 0 0 0 0 0 0 0 0 0 0 0 0 0 0 0 0 0 0 0 0 0 0 0 0 0 0 0 0 0 0 0 0 0 0 0 0 0 0 0 0 0 0 0 0 0 0 0 0 0 0 0 0 0 0 0 0 0 0 0 0 0 0 0 0 0 0 0 0 0 0 0 0 0 0 0 0 0 0 0 0 0 0 0 0 0 0 0 0 0 0 0 0 0 0 0 0 0 0 0 0 0 0 0 0 0 0 0 0 0 0 0 0 0 0 0 0 0 0 0 0 0 0 0 0 0 0 0 0 0 0 0 0 0 0 0 0 0 0 0 0 0 0 0 0 0 0 0 0 0 0 0 0 0 0 0 0 0 0 0 0 0 0 0 0 0 0 0 0 0 0 0 0 0 0 0 0 0 0 0 0 0 0 0 0 0 0 0 0 0 0 0 0 0 0 0 0 0 0 0 0 0 0 0 0 0 0 0 0 0 0 0 0 0 0 0 0 0 0 0 0 0 0 0 0 0 0 0 0 0 0 0 0 0 0 0 0 0 0 0 0 0 0 0 0 0 0 0 0 0 0 0 0 0 0 0 0 0 0 0 0 0 0 0 
0.02 0.02 0.02 0.02 0.02 0.02 0.02 0.02 0.02 0.02 0.02 0.02 0.02 0.02 0.02 0.02 0.02 0.02 0.02 0.02 0.02 0.02 0.02 0.02 0.02 0.02 0.0199999 0.0199999 0.0199999 0.0199999 0.0199999 0.0199999 0.0199998 0.0199998 0.0199998 0.0199997 0.0199997 0.0199997 0.0199996 0.0199995 0.0199995 0.0199994 0.0199993 0.0199991 0.019999 0.0199988 0.0199987 0.0199985 0.0199982 0.019998 0.0199977 0.0199973 0.0199969 0.0199965 0.019996 0.0199955 0.0199949 0.0199942 0.0199934 0.0199926 0.0199917 0.0199906 0.0199895 0.0199882 0.0199869 0.0199854 0.0199837 0.0199819 0.0199799 0.0199778 0.0199754 0.0199729 0.0199702 0.0199672 0.019964 0.0199606 0.0199568 0.0199528 0.0199485 0.0199439 0.019939 0.0199337 0.019928 0.0199219 0.0199154 0.0199084 0.019901 0.0198931 0.0198847 0.0198756 0.019866 0.0198558 0.0198449 0.0198332 0.0198208 0.0198076 0.0197935 0.0197784 0.0197623 0.0197452 0.0197269 0.0197073 0.0196864 0.0196641 0.0196403 0.0196147 0.0195874 0.0195583 0.0195271 0.0194938 0.0194583 0.0194205 0.0193804 0.0193378 0.0192928 0.0192455 0.0191959 0.0191442 0.0190907 0.0190356 0.0189792 0.0189222 0.0188649 0.0188079 0.018752 0.0186977 0.0186456 0.0185954 0.0185459 0.0185001 0.0184604 0.0184274 0.0184017 0.0183835 0.0183732 0.018371 0.0183772 0.0183917 0.0184146 0.0184455 0.0184841 0.0185299 0.0185819 0.0186394 0.018701 0.0187655 0.0188312 0.0188965 0.0189595 0.0190183 0.0190708 0.0191149 0.0191487 0.0191703 0.0191777 0.0191692 0.0191431 0.0190975 0.0190304 0.0189392 0.0188204 0.0186698 0.0184822 0.0182519 0.0179721 0.0176358 0.0172384 0.0167754 0.016274 0.0157904 0.0151376 0.0147615 0.0148525 0.0137849 0.0125372 0.0113361 0.010165 0.00893591 0.00762225 0.00620319 0.00468991 0.00327604 0.00181607 0.000965171 0 0 0 0 0 0 0 0 0 0 0 0 0 0 0 0 0 0 0 0 0 0 0 0 0 0 0 0 0 0 0 0 0 0 0 0 0 0 0 0 0 0 0 0 0 0 0 0 0 0 0 0 0 0 0 0 0 0 0 0 0 0 0 0 0 0 0 0 0 0 0 0 0 0 0 0 0 0 0 0 0 0 0 0 0 0 0 0 0 0 0 0 0 0 0 0 0 0 0 0 0 0 0 0 0 0 0 0 0 0 0 0 0 0 0 0 0 0 0 0 0 0 0 0 0 0 0 0 0 0 0 0 0 0 0 0 0 0 0 0 0 0 0 0 0 0 0 0 0 0 0 0 0 0 0 0 0 0 0 0 0 0 0 0 0 0 0 0 0 0 0 0 0 0 0 0 0 0 0 0 0 0 0 0 0 0 0 0 0 0 0 0 0 0 0 0 0 0 0 0 0 0 0 0 0 0 0 0 0 0 0 0 0 0 0 0 0 0 0 0 0 0 0 0 0 0 0 0 0 0 0 0 0 0 0 0 0 0 0 0 0 0 0 0 0 0 0 0 0 0 0 0 0 0 0 0 0 0 0 0 0 0 0 0 0 0 0 0 0 0 0 0 0 0 0 0 0 0 0 0 0 0 0 0 0 0 0 0 0 0 0 0 0 0 0 0 0 0 0 0 0 0 0 0 0 0 0 0 0 0 0 0 0 0 0 0 0 0 0 0 0 0 0 0 0 0 0 0 0 0 0 0 0 0 0 0 0 0 0 0 0 0 0 0 0 0 0 0 0 0 0 0 0 0 0 0 0 0 0 0 0 0 0 0 0 0 0 0 0 0 0 0 0 0 0 0 0 0 0 0 0 0 0 0 0 0 0 0 0 0 0 0 0 0 0 0 0 0 0 0 0 0 0 0 0 0 0 0 0 0 0 0 0 0 0 0 0 0 0 0 0 0 0 0 0 0 0 0 0 0 0 0 0 0 0 0 0 
0.02 0.02 0.02 0.02 0.02 0.02 0.02 0.02 0.02 0.02 0.02 0.02 0.02 0.02 0.02 0.02 0.02 0.02 0.02 0.02 0.02 0.02 0.02 0.02 0.02 0.02 0.0199999 0.0199999 0.0199999 0.0199999 0.0199999 0.0199999 0.0199999 0.0199998 0.0199998 0.0199998 0.0199997 0.0199997 0.0199996 0.0199995 0.0199995 0.0199994 0.0199993 0.0199992 0.019999 0.0199989 0.0199987 0.0199985 0.0199983 0.019998 0.0199977 0.0199974 0.019997 0.0199966 0.0199961 0.0199956 0.019995 0.0199944 0.0199936 0.0199928 0.0199919 0.0199909 0.0199898 0.0199886 0.0199873 0.0199858 0.0199842 0.0199824 0.0199805 0.0199784 0.0199762 0.0199737 0.019971 0.0199681 0.019965 0.0199617 0.019958 0.0199541 0.0199499 0.0199454 0.0199406 0.0199354 0.0199298 0.0199239 0.0199175 0.0199107 0.0199035 0.0198957 0.0198875 0.0198786 0.0198692 0.0198591 0.0198484 0.019837 0.0198248 0.0198118 0.0197979 0.019783 0.0197672 0.0197503 0.0197322 0.0197129 0.0196923 0.0196702 0.0196466 0.0196214 0.0195944 0.0195655 0.0195346 0.0195017 0.0194665 0.019429 0.0193892 0.0193469 0.0193023 0.0192553 0.0192061 0.0191547 0.0191015 0.0190466 0.0189906 0.0189337 0.0188766 0.0188198 0.0187639 0.0187097 0.0186576 0.0186079 0.0185603 0.0185157 0.0184761 0.0184426 0.018416 0.0183969 0.0183854 0.018382 0.0183867 0.0183997 0.0184208 0.0184499 0.0184865 0.01853 0.0185797 0.0186346 0.0186936 0.0187552 0.0188179 0.0188801 0.0189399 0.0189954 0.0190445 0.0190853 0.0191158 0.019134 0.0191383 0.0191269 0.0190981 0.0190504 0.0189814 0.0188889 0.0187694 0.0186187 0.0184318 0.0182031 0.0179271 0.017597 0.0172134 0.0167749 0.0163068 0.0158687 0.0153833 0.0147471 0.0143966 0.0134925 0.0124632 0.0113234 0.0101498 0.00890733 0.00759406 0.00620097 0.00476335 0.00336693 0.00194658 0.000518221 -0.00111556 -0.00292772 -0.00466376 -0.00667913 -0.00894638 0 0 0 0 0 0 0 0 0 0 0 0 0 0 0 0 0 0 0 0 0 0 0 0 0 0 0 0 0 0 0 0 0 0 0 0 0 0 0 0 0 0 0 0 0 0 0 0 0 0 0 0 0 0 0 0 0 0 0 0 0 0 0 0 0 0 0 0 0 0 0 0 0 0 0 0 0 0 0 0 0 0 0 0 0 0 0 0 0 0 0 0 0 0 0 0 0 0 0 0 0 0 0 0 0 0 0 0 0 0 0 0 0 0 0 0 0 0 0 0 0 0 0 0 0 0 0 0 0 0 0 0 0 0 0 0 0 0 0 0 0 0 0 0 0 0 0 0 0 0 0 0 0 0 0 0 0 0 0 0 0 0 0 0 0 0 0 0 0 0 0 0 0 0 0 0 0 0 0 0 0 0 0 0 0 0 0 0 0 0 0 0 0 0 0 0 0 0 0 0 0 0 0 0 0 0 0 0 0 0 0 0 0 0 0 0 0 0 0 0 0 0 0 0 0 0 0 0 0 0 0 0 0 0 0 0 0 0 0 0 0 0 0 0 0 0 0 0 0 0 0 0 0 0 0 0 0 0 0 0 0 0 0 0 0 0 0 0 0 0 0 0 0 0 0 0 0 0 0 0 0 0 0 0 0 0 0 0 0 0 0 0 0 0 0 0 0 0 0 0 0 0 0 0 0 0 0 0 0 0 0 0 0 0 0 0 0 0 0 0 0 0 0 0 0 0 0 0 0 0 0 0 0 0 0 0 0 0 0 0 0 0 0 0 0 0 0 0 0 0 0 0 0 0 0 0 0 0 0 0 0 0 0 0 0 0 0 0 0 0 0 0 0 0 0 0 0 0 0 0 0 0 0 0 0 0 0 0 0 0 0 0 0 0 0 0 0 0 0 0 0 0 0 0 0 0 0 0 0 0 0 0 0 0 0 0 0 0 0 0 0 0 0 0 0 0 0 0 0 0 0 2.71051e-20 
0.02 0.02 0.02 0.02 0.02 0.02 0.02 0.02 0.02 0.02 0.02 0.02 0.02 0.02 0.02 0.02 0.02 0.02 0.02 0.02 0.02 0.02 0.02 0.02 0.02 0.02 0.0199999 0.0199999 0.0199999 0.0199999 0.0199999 0.0199999 0.0199999 0.0199998 0.0199998 0.0199998 0.0199997 0.0199997 0.0199996 0.0199996 0.0199995 0.0199994 0.0199993 0.0199992 0.0199991 0.0199989 0.0199988 0.0199986 0.0199984 0.0199981 0.0199978 0.0199975 0.0199972 0.0199968 0.0199963 0.0199958 0.0199952 0.0199946 0.0199939 0.0199931 0.0199922 0.0199913 0.0199902 0.019989 0.0199877 0.0199863 0.0199848 0.0199831 0.0199812 0.0199792 0.019977 0.0199747 0.0199721 0.0199693 0.0199663 0.019963 0.0199595 0.0199558 0.0199517 0.0199473 0.0199427 0.0199376 0.0199323 0.0199265 0.0199203 0.0199137 0.0199067 0.0198992 0.0198911 0.0198825 0.0198734 0.0198636 0.0198531 0.019842 0.01983 0.0198173 0.0198038 0.0197892 0.0197738 0.0197572 0.0197395 0.0197206 0.0197003 0.0196786 0.0196555 0.0196306 0.0196041 0.0195756 0.0195452 0.0195127 0.019478 0.019441 0.0194017 0.01936 0.0193159 0.0192695 0.0192207 0.0191699 0.0191172 0.0190629 0.0190073 0.0189509 0.0188942 0.0188378 0.0187822 0.0187281 0.0186762 0.0186268 0.0185803 0.0185369 0.0184978 0.0184642 0.018437 0.0184168 0.0184041 0.0183991 0.0184021 0.0184131 0.0184321 0.0184587 0.0184927 0.0185333 0.0185798 0.0186313 0.0186866 0.0187444 0.0188031 0.0188611 0.0189165 0.0189675 0.019012 0.0190482 0.019074 0.0190877 0.0190877 0.0190721 0.0190396 0.0189885 0.0189168 0.018822 0.0187011 0.0185498 0.0183633 0.0181367 0.0178662 0.0175479 0.0171831 0.0167794 0.0163405 0.0159092 0.0154749 0.0149702 0.0142455 0.013363 0.0123821 0.0112997 0.0101345 0.00889512 0.00759369 0.00623331 0.00483667 0.00343945 0.00200611 0.000459548 -0.0011843 -0.00287381 -0.00445349 -0.00634319 -0.0084112 -0.0103108 -0.0121448 -0.0142837 -0.0177026 0 0 0 0 0 0 0 0 0 0 0 0 0 0 0 0 0 0 0 0 0 0 0 0 0 0 0 0 0 0 0 0 0 0 0 0 0 0 0 0 0 0 0 0 0 0 0 0 0 0 0 0 0 0 0 0 0 0 0 0 0 0 0 0 0 0 0 0 0 0 0 0 0 0 0 0 0 0 0 0 0 0 0 0 0 0 0 0 0 0 0 0 0 0 0 0 0 0 0 0 0 0 0 0 0 0 0 0 0 0 0 0 0 0 0 0 0 0 0 0 0 0 0 0 0 0 0 0 0 0 0 0 0 0 0 0 0 0 0 0 0 0 0 0 0 0 0 0 0 0 0 0 0 0 0 0 0 0 0 0 0 0 0 0 0 0 0 0 0 0 0 0 0 0 0 0 0 0 0 0 0 0 0 0 0 0 0 0 0 0 0 0 0 0 0 0 0 0 0 0 0 0 0 0 0 0 0 0 0 0 0 0 0 0 0 0 0 0 0 0 0 0 0 0 0 0 0 0 0 0 0 0 0 0 0 0 0 0 0 0 0 0 0 0 0 0 0 0 0 0 0 0 0 0 0 0 0 0 0 0 0 0 0 0 0 0 0 0 0 0 0 0 0 0 0 0 0 0 0 0 0 0 0 0 0 0 0 0 0 0 0 0 0 0 0 0 0 0 0 0 0 0 0 0 0 0 0 0 0 0 0 0 0 0 0 0 0 0 0 0 0 0 0 0 0 0 0 0 0 0 0 0 0 0 0 0 0 0 0 0 0 0 0 0 0 0 0 0 0 0 0 0 0 0 0 0 0 0 0 0 0 0 0 0 0 0 0 0 0 0 0 0 0 0 0 0 0 0 0 0 0 0 0 0 0 0 0 0 0 0 0 0 0 0 0 0 0 0 0 0 0 0 0 0 0 0 0 0 0 0 0 0 0 0 0 0 0 0 0 0 0 0 0 0 0 0 -0.00408947 0 
0.02 0.02 0.02 0.02 0.02 0.02 0.02 0.02 0.02 0.02 0.02 0.02 0.02 0.02 0.02 0.02 0.02 0.02 0.02 0.02 0.02 0.02 0.02 0.02 0.02 0.02 0.02 0.0199999 0.0199999 0.0199999 0.0199999 0.0199999 0.0199999 0.0199998 0.0199998 0.0199998 0.0199997 0.0199997 0.0199997 0.0199996 0.0199995 0.0199994 0.0199994 0.0199992 0.0199991 0.019999 0.0199988 0.0199987 0.0199984 0.0199982 0.019998 0.0199977 0.0199973 0.0199969 0.0199965 0.019996 0.0199955 0.0199949 0.0199942 0.0199935 0.0199926 0.0199917 0.0199907 0.0199896 0.0199884 0.019987 0.0199855 0.0199839 0.0199822 0.0199802 0.0199781 0.0199759 0.0199734 0.0199708 0.0199679 0.0199648 0.0199614 0.0199578 0.0199539 0.0199498 0.0199453 0.0199405 0.0199353 0.0199298 0.0199239 0.0199175 0.0199107 0.0199035 0.0198958 0.0198875 0.0198786 0.0198692 0.0198591 0.0198483 0.0198368 0.0198244 0.0198113 0.0197972 0.0197821 0.019766 0.0197488 0.0197304 0.0197106 0.0196895 0.0196668 0.0196425 0.0196166 0.0195887 0.0195589 0.0195271 0.019493 0.0194567 0.0194181 0.0193771 0.0193337 0.019288 0.01924 0.0191899 0.0191379 0.0190843 0.0190294 0.0189737 0.0189175 0.0188616 0.0188064 0.0187526 0.0187009 0.0186519 0.0186059 0.0185634 0.0185249 0.0184914 0.0184637 0.0184426 0.0184285 0.0184219 0.0184228 0.0184315 0.0184478 0.0184714 0.018502 0.018539 0.0185816 0.0186288 0.0186796 0.0187326 0.0187862 0.0188389 0.0188889 0.0189343 0.0189732 0.0190037 0.0190239 0.0190321 0.0190267 0.0190061 0.018969 0.0189137 0.0188384 0.0187408 0.0186177 0.0184654 0.0182795 0.0180561 0.0177932 0.0174909 0.0171495 0.016776 0.01637 0.0159269 0.015449 0.0148668 0.0141504 0.0133008 0.0123366 0.0112743 0.0101281 0.00890659 0.00762557 0.00629552 0.00492128 0.00350153 0.00202675 0.00046526 -0.00116958 -0.00287096 -0.0045555 -0.00626007 -0.00827109 -0.0100929 -0.0116925 -0.0137923 -0.0162937 -0.0183887 -0.0203616 -0.0227742 -0.0271623 0 0 0 0 0 0 0 0 0 0 0 0 0 0 0 0 0 0 0 0 0 0 0 0 0 0 0 0 0 0 0 0 0 0 0 0 0 0 0 0 0 0 0 0 0 0 0 0 0 0 0 0 0 0 0 0 0 0 0 0 0 0 0 0 0 0 0 0 0 0 0 0 0 0 0 0 0 0 0 0 0 0 0 0 0 0 0 0 0 0 0 0 0 0 0 0 0 0 0 0 0 0 0 0 0 0 0 0 0 0 0 0 0 0 0 0 0 0 0 0 0 0 0 0 0 0 0 0 0 0 0 0 0 0 0 0 0 0 0 0 0 0 0 0 0 0 0 0 0 0 0 0 0 0 0 0 0 0 0 0 0 0 0 0 0 0 0 0 0 0 0 0 0 0 0 0 0 0 0 0 0 0 0 0 0 0 0 0 0 0 0 0 0 0 0 0 0 0 0 0 0 0 0 0 0 0 0 0 0 0 0 0 0 0 0 0 0 0 0 0 0 0 0 0 0 0 0 0 0 0 0 0 0 0 0 0 0 0 0 0 0 0 0 0 0 0 0 0 0 0 0 0 0 0 0 0 0 0 0 0 0 0 0 0 0 0 0 0 0 0 0 0 0 0 0 0 0 0 0 0 0 0 0 0 0 0 0 0 0 0 0 0 0 0 0 0 0 0 0 0 0 0 0 0 0 0 0 0 0 0 0 0 0 0 0 0 0 0 0 0 0 0 0 0 0 0 0 0 0 0 0 0 0 0 0 0 0 0 0 0 0 0 0 0 0 0 0 0 0 0 0 0 0 0 0 0 0 0 0 0 0 0 0 0 0 0 0 0 0 0 0 0 0 0 0 0 0 0 0 0 0 0 0 0 0 0 0 0 0 0 0 0 0 0 0 0 0 0 0 0 0 0 0 0 0 0 0 0 0 0 0 0 0 0 0 0 0 0 0 0 0 -0.01301 -0.00677563 -4.33681e-19 
0.02 0.02 0.02 0.02 0.02 0.02 0.02 0.02 0.02 0.02 0.02 0.02 0.02 0.02 0.02 0.02 0.02 0.02 0.02 0.02 0.02 0.02 0.02 0.02 0.02 0.02 0.02 0.0199999 0.0199999 0.0199999 0.0199999 0.0199999 0.0199999 0.0199999 0.0199998 0.0199998 0.0199998 0.0199997 0.0199997 0.0199996 0.0199996 0.0199995 0.0199994 0.0199993 0.0199992 0.0199991 0.0199989 0.0199988 0.0199986 0.0199983 0.0199981 0.0199978 0.0199975 0.0199971 0.0199967 0.0199963 0.0199958 0.0199952 0.0199946 0.0199939 0.0199931 0.0199922 0.0199913 0.0199902 0.0199891 0.0199878 0.0199864 0.0199849 0.0199833 0.0199814 0.0199795 0.0199773 0.019975 0.0199725 0.0199698 0.0199669 0.0199637 0.0199603 0.0199566 0.0199527 0.0199484 0.0199439 0.019939 0.0199337 0.0199281 0.0199221 0.0199156 0.0199087 0.0199013 0.0198934 0.019885 0.0198759 0.0198663 0.0198559 0.0198449 0.019833 0.0198203 0.0198068 0.0197923 0.0197767 0.0197601 0.0197422 0.0197231 0.0197026 0.0196806 0.0196571 0.0196318 0.0196047 0.0195757 0.0195446 0.0195113 0.0194759 0.0194381 0.019398 0.0193555 0.0193107 0.0192636 0.0192144 0.0191633 0.0191106 0.0190565 0.0190015 0.0189461 0.0188908 0.0188362 0.0187828 0.0187314 0.0186826 0.0186369 0.0185947 0.0185566 0.0185232 0.0184952 0.0184732 0.0184578 0.0184493 0.018448 0.0184539 0.0184671 0.0184872 0.0185139 0.0185465 0.0185844 0.0186267 0.0186721 0.0187193 0.018767 0.0188136 0.0188572 0.0188961 0.0189284 0.0189523 0.018966 0.0189679 0.0189564 0.0189302 0.0188878 0.0188278 0.0187483 0.0186472 0.0185217 0.0183683 0.0181835 0.0179644 0.0177108 0.0174247 0.0171072 0.0167562 0.0163693 0.0159234 0.015403 0.0147997 0.014079 0.013241 0.0122966 0.0112572 0.0101356 0.0089401 0.00768313 0.00637328 0.0050077 0.00357495 0.00207357 0.000502676 -0.0011285 -0.00283229 -0.00457769 -0.00638877 -0.0082087 -0.010053 -0.0118941 -0.013658 -0.0160369 -0.0179871 -0.0199832 -0.0213529 -0.0248531 -0.0269949 -0.0290366 -0.0316962 -0.0373139 0 0 0 0 0 0 0 0 0 0 0 0 0 0 0 0 0 0 0 0 0 0 0 0 0 0 0 0 0 0 0 0 0 0 0 0 0 0 0 0 0 0 0 0 0 0 0 0 0 0 0 0 0 0 0 0 0 0 0 0 0 0 0 0 0 0 0 0 0 0 0 0 0 0 0 0 0 0 0 0 0 0 0 0 0 0 0 0 0 0 0 0 0 0 0 0 0 0 0 0 0 0 0 0 0 0 0 0 0 0 0 0 0 0 0 0 0 0 0 0 0 0 0 0 0 0 0 0 0 0 0 0 0 0 0 0 0 0 0 0 0 0 0 0 0 0 0 0 0 0 0 0 0 0 0 0 0 0 0 0 0 0 0 0 0 0 0 0 0 0 0 0 0 0 0 0 0 0 0 0 0 0 0 0 0 0 0 0 0 0 0 0 0 0 0 0 0 0 0 0 0 0 0 0 0 0 0 0 0 0 0 0 0 0 0 0 0 0 0 0 0 0 0 0 0 0 0 0 0 0 0 0 0 0 0 0 0 0 0 0 0 0 0 0 0 0 0 0 0 0 0 0 0 0 0 0 0 0 0 0 0 0 0 0 0 0 0 0 0 0 0 0 0 0 0 0 0 0 0 0 0 0 0 0 0 0 0 0 0 0 0 0 0 0 0 0 0 0 0 0 0 0 0 0 0 0 0 0 0 0 0 0 0 0 0 0 0 0 0 0 0 0 0 0 0 0 0 0 0 0 0 0 0 0 0 0 0 0 0 0 0 0 0 0 0 0 0 0 0 0 0 0 0 0 0 0 0 0 0 0 0 0 0 0 0 0 0 0 0 0 0 0 0 0 0 0 0 0 0 0 0 0 0 0 0 0 0 0 0 0 0 0 0 0 0 0 0 0 0 0 0 0 0 0 0 0 0 0 0 0 0 0 0 0 0 -0.0281833 -0.0242949 -0.0172659 -0.00939715 -4.33681e-19 
0.02 0.02 0.02 0.02 0.02 0.02 0.02 0.02 0.02 0.02 0.02 0.02 0.02 0.02 0.02 0.02 0.02 0.02 0.02 0.02 0.02 0.02 0.02 0.02 0.02 0.02 0.02 0.02 0.0199999 0.0199999 0.0199999 0.0199999 0.0199999 0.0199999 0.0199998 0.0199998 0.0199998 0.0199997 0.0199997 0.0199997 0.0199996 0.0199995 0.0199995 0.0199994 0.0199993 0.0199992 0.019999 0.0199989 0.0199987 0.0199985 0.0199983 0.019998 0.0199977 0.0199974 0.019997 0.0199966 0.0199961 0.0199956 0.019995 0.0199944 0.0199937 0.0199929 0.019992 0.019991 0.0199899 0.0199888 0.0199875 0.0199861 0.0199845 0.0199828 0.019981 0.019979 0.0199769 0.0199745 0.019972 0.0199693 0.0199663 0.0199631 0.0199597 0.019956 0.019952 0.0199478 0.0199432 0.0199383 0.019933 0.0199273 0.0199213 0.0199148 0.0199078 0.0199003 0.0198923 0.0198838 0.0198746 0.0198648 0.0198543 0.019843 0.0198309 0.019818 0.0198041 0.0197892 0.0197732 0.0197561 0.0197377 0.019718 0.0196968 0.019674 0.0196496 0.0196233 0.0195952 0.019565 0.0195327 0.0194983 0.0194615 0.0194224 0.0193809 0.0193371 0.0192911 0.019243 0.0191929 0.0191412 0.0190881 0.0190341 0.0189795 0.018925 0.018871 0.0188181 0.0187671 0.0187184 0.0186728 0.0186307 0.0185926 0.018559 0.0185305 0.0185076 0.0184907 0.0184803 0.0184765 0.0184795 0.0184892 0.0185054 0.0185276 0.0185554 0.0185879 0.0186244 0.0186637 0.0187045 0.0187454 0.018785 0.0188214 0.018853 0.018878 0.0188947 0.0189013 0.0188963 0.0188782 0.0188458 0.0187977 0.0187326 0.0186486 0.0185438 0.0184157 0.0182613 0.0180782 0.0178645 0.0176205 0.0173485 0.0170491 0.0167156 0.0163364 0.0158974 0.0153716 0.0147467 0.0140187 0.0131898 0.0122652 0.011251 0.0101561 0.00898853 0.0077546 0.00645863 0.00509721 0.00366399 0.00215277 0.000572028 -0.001066 -0.00276105 -0.00452553 -0.00631487 -0.0081517 -0.0100272 -0.0119845 -0.0139552 -0.0159279 -0.0179264 -0.019994 -0.0222639 -0.0244011 -0.0263834 -0.0286167 -0.0298302 -0.0339227 -0.035962 -0.0375814 -0.0394535 -0.0463539 -0.0450951 0 0 0 0 0 0 0 0 0 0 0 0 0 0 0 0 0 0 0 0 0 0 0 0 0 0 0 0 0 0 0 0 0 0 0 0 0 0 0 0 0 0 0 0 0 0 0 0 0 0 0 0 0 0 0 0 0 0 0 0 0 0 0 0 0 0 0 0 0 0 0 0 0 0 0 0 0 0 0 0 0 0 0 0 0 0 0 0 0 0 0 0 0 0 0 0 0 0 0 0 0 0 0 0 0 0 0 0 0 0 0 0 0 0 0 0 0 0 0 0 0 0 0 0 0 0 0 0 0 0 0 0 0 0 0 0 0 0 0 0 0 0 0 0 0 0 0 0 0 0 0 0 0 0 0 0 0 0 0 0 0 0 0 0 0 0 0 0 0 0 0 0 0 0 0 0 0 0 0 0 0 0 0 0 0 0 0 0 0 0 0 0 0 0 0 0 0 0 0 0 0 0 0 0 0 0 0 0 0 0 0 0 0 0 0 0 0 0 0 0 0 0 0 0 0 0 0 0 0 0 0 0 0 0 0 0 0 0 0 0 0 0 0 0 0 0 0 0 0 0 0 0 0 0 0 0 0 0 0 0 0 0 0 0 0 0 0 0 0 0 0 0 0 0 0 0 0 0 0 0 0 0 0 0 0 0 0 0 0 0 0 0 0 0 0 0 0 0 0 0 0 0 0 0 0 0 0 0 0 0 0 0 0 0 0 0 0 0 0 0 0 0 0 0 0 0 0 0 0 0 0 0 0 0 0 0 0 0 0 0 0 0 0 0 0 0 0 0 0 0 0 0 0 0 0 0 0 0 0 0 0 0 0 0 0 0 0 0 0 0 0 0 0 0 0 0 0 0 0 0 0 0 0 0 0 -0.0394006 -0.0435547 -0.0449105 -0.0454747 -0.0457605 -0.0459177 -0.046006 -0.0460453 -0.0460439 -0.0460059 -0.0459334 -0.0458281 -0.0456923 -0.0455282 -0.0453387 -0.045126 -0.0448909 -0.0446306 -0.0443356 -0.0439827 -0.0435172 -0.0427768 -0.0413576 -0.0390489 -0.0361314 -0.031702 -0.026053 -0.0191336 -0.0108314 3.03577e-18 
0.02 0.02 0.02 0.02 0.02 0.02 0.02 0.02 0.02 0.02 0.02 0.02 0.02 0.02 0.02 0.02 0.02 0.02 0.02 0.02 0.02 0.02 0.02 0.02 0.02 0.02 0.02 0.02 0.02 0.0199999 0.0199999 0.0199999 0.0199999 0.0199999 0.0199999 0.0199998 0.0199998 0.0199998 0.0199997 0.0199997 0.0199996 0.0199996 0.0199995 0.0199994 0.0199994 0.0199992 0.0199991 0.019999 0.0199988 0.0199987 0.0199984 0.0199982 0.019998 0.0199977 0.0199973 0.0199969 0.0199965 0.019996 0.0199955 0.0199949 0.0199943 0.0199935 0.0199927 0.0199919 0.0199909 0.0199898 0.0199886 0.0199873 0.0199859 0.0199844 0.0199827 0.0199809 0.0199789 0.0199768 0.0199745 0.019972 0.0199692 0.0199663 0.0199632 0.0199598 0.0199561 0.0199522 0.0199479 0.0199434 0.0199385 0.0199332 0.0199276 0.0199215 0.0199151 0.0199081 0.0199006 0.0198926 0.019884 0.0198748 0.0198649 0.0198542 0.0198428 0.0198306 0.0198174 0.0198033 0.0197881 0.0197717 0.0197542 0.0197353 0.019715 0.0196931 0.0196696 0.0196444 0.0196172 0.0195881 0.0195569 0.0195235 0.0194879 0.0194499 0.0194096 0.019367 0.0193222 0.0192753 0.0192264 0.0191758 0.0191238 0.0190708 0.0190172 0.0189635 0.0189102 0.0188579 0.0188072 0.0187587 0.018713 0.0186707 0.0186323 0.0185982 0.0185689 0.0185449 0.0185264 0.0185139 0.0185075 0.0185073 0.0185132 0.018525 0.0185424 0.0185648 0.0185915 0.0186216 0.0186541 0.0186878 0.0187213 0.0187532 0.0187818 0.0188056 0.0188227 0.0188316 0.0188307 0.0188185 0.0187936 0.0187548 0.0187009 0.0186304 0.0185418 0.0184332 0.0183025 0.0181475 0.0179664 0.0177583 0.0175233 0.0172618 0.016972 0.016646 0.0162677 0.0158209 0.0152929 0.0146723 0.0139554 0.0131433 0.0122408 0.0112534 0.010187 0.00904702 0.00783548 0.00655266 0.00519589 0.00376383 0.00225676 0.000678242 -0.000963914 -0.00266622 -0.00441707 -0.0062225 -0.0080637 -0.00996292 -0.0119112 -0.0139048 -0.0158838 -0.0179342 -0.0200301 -0.0222126 -0.0243285 -0.0264586 -0.0286466 -0.0311082 -0.0332981 -0.0351412 -0.036982 -0.0389903 -0.042277 -0.0449563 -0.0461441 -0.047152 -0.0476544 -0.0498325 -0.0533689 -0.0624393 0 0 0 0 0 0 0 0 0 0 0 0 0 0 0 0 0 0 0 0 0 0 0 0 0 0 0 0 0 0 0 0 0 0 0 0 0 0 0 0 0 0 0 0 0 0 0 0 0 0 0 0 0 0 0 0 0 0 0 0 0 0 0 0 0 0 0 0 0 0 0 0 0 0 0 0 0 0 0 0 0 0 0 0 0 0 0 0 0 0 0 0 0 0 0 0 0 0 0 0 0 0 0 0 0 0 0 0 0 0 0 0 0 0 0 0 0 0 0 0 0 0 0 0 0 0 0 0 0 0 0 0 0 0 0 0 0 0 0 0 0 0 0 0 0 0 0 0 0 0 0 0 0 0 0 0 0 0 0 0 0 0 0 0 0 0 0 0 0 0 0 0 0 0 0 0 0 0 0 0 0 0 0 0 0 0 0 0 0 0 0 0 0 0 0 -0.0483404 -0.0504397 -0.0510694 -0.0513232 -0.0514194 -0.0514296 -0.0514067 -0.0513668 -0.0513202 -0.0512788 -0.051252 -0.0512465 -0.0512654 -0.0513087 -0.0513743 -0.0514582 -0.0515554 -0.0516608 -0.0517689 -0.0518749 -0.0519743 -0.0520636 -0.0521401 -0.0522027 -0.0522507 -0.0522816 -0.0522894 -0.0522675 -0.0522198 -0.0521696 -0.0521705 -0.0521737 -0.0528982 -0.0616779 0 0 0 0 0 0 0 0 0 0 0 0 0 0 0 -0.0442665 -0.048676 -0.0504271 -0.0512328 -0.0515704 -0.0516649 -0.05165 -0.0515938 -0.0515187 -0.051429 -0.0513255 -0.0512094 -0.0510824 -0.0509465 -0.0508039 -0.0506573 -0.0505094 -0.0503636 -0.0502235 -0.0500933 -0.0499779 -0.049881 -0.0498008 -0.0497225 -0.0496122 -0.0493899 -0.0492751 -0.050331 -0.0570765 0 0 0 0 0 0 0 0 0 0 0 0 0 0 0 0 0 0 0 0 0 0 0 0 0 0 0 0 0 0 0 0 0 0 0 0 0 0 0 0 0 0 0 0 0 0 0 0 0 0 0 0 0 0 0 0 0 0 -0.0502402 -0.052063 -0.0524344 -0.0523891 -0.052199 -0.0519673 -0.0517446 -0.0515329 -0.0513267 -0.0511209 -0.0509127 -0.050701 -0.0504856 -0.0502664 -0.050042 -0.0498079 -0.0495515 -0.0492207 -0.0487695 -0.0483828 -0.0480911 -0.0478505 -0.0476473 -0.0474731 -0.0473221 -0.0471906 -0.047076 -0.046977 -0.0468931 -0.0468245 -0.0467719 -0.0467355 -0.046715 -0.0467091 -0.046715 -0.0467285 -0.0467445 -0.0467575 -0.0467626 -0.0467569 -0.0467388 -0.0467055 -0.0466422 -0.0465132 -0.046262 -0.0458065 -0.0450578 -0.0441856 -0.0436927 -0.0442217 -0.0449874 -0.0454731 -0.0457547 -0.0459141 -0.0460035 -0.0460421 -0.0460391 -0.0459991 -0.0459251 -0.0458191 -0.0456837 -0.0455214 -0.045335 -0.0451267 -0.0448971 -0.044643 -0.044354 -0.0440022 -0.043514 -0.0427206 -0.0413645 -0.0392456 -0.0362773 -0.0321103 -0.0267792 -0.0201659 -0.0116919 -3.46945e-18 
0.02 0.02 0.02 0.02 0.02 0.02 0.02 0.02 0.02 0.02 0.02 0.02 0.02 0.02 0.02 0.02 0.02 0.02 0.02 0.02 0.02 0.02 0.02 0.02 0.02 0.02 0.02 0.02 0.02 0.02 0.0199999 0.0199999 0.0199999 0.0199999 0.0199999 0.0199999 0.0199998 0.0199998 0.0199998 0.0199997 0.0199997 0.0199996 0.0199996 0.0199995 0.0199994 0.0199994 0.0199992 0.0199991 0.019999 0.0199988 0.0199987 0.0199984 0.0199982 0.019998 0.0199977 0.0199973 0.0199969 0.0199965 0.0199961 0.0199955 0.0199949 0.0199943 0.0199936 0.0199928 0.0199919 0.019991 0.0199899 0.0199887 0.0199875 0.0199861 0.0199846 0.019983 0.0199812 0.0199793 0.0199772 0.0199749 0.0199725 0.0199698 0.019967 0.0199639 0.0199605 0.019957 0.0199531 0.019949 0.0199445 0.0199397 0.0199345 0.019929 0.019923 0.0199166 0.0199097 0.0199023 0.0198943 0.0198857 0.0198765 0.0198666 0.0198559 0.0198444 0.0198321 0.0198187 0.0198044 0.019789 0.0197723 0.0197544 0.019735 0.0197142 0.0196918 0.0196676 0.0196416 0.0196136 0.0195836 0.0195514 0.019517 0.0194803 0.0194412 0.0193999 0.0193564 0.0193107 0.0192631 0.0192138 0.019163 0.0191111 0.0190585 0.0190056 0.0189531 0.0189014 0.0188511 0.0188027 0.018757 0.0187143 0.0186753 0.0186404 0.01861 0.0185845 0.0185642 0.0185493 0.01854 0.0185363 0.0185382 0.0185453 0.0185575 0.0185741 0.0185945 0.0186178 0.018643 0.0186691 0.0186947 0.0187184 0.0187387 0.0187542 0.0187631 0.018764 0.0187554 0.0187359 0.0187042 0.018659 0.0185992 0.0185235 0.0184303 0.0183182 0.0181852 0.0180298 0.0178509 0.0176479 0.0174202 0.017166 0.0168811 0.0165566 0.0161794 0.0157333 0.0152064 0.0145921 0.0138886 0.0130969 0.0122197 0.0112606 0.0102228 0.00910889 0.00791891 0.00665188 0.00530629 0.00388327 0.00238477 0.000813881 -0.000826302 -0.0025269 -0.00428624 -0.00609462 -0.00795122 -0.00985979 -0.0118368 -0.0138417 -0.0158756 -0.0179483 -0.0201005 -0.0222241 -0.024345 -0.0265275 -0.0287249 -0.031025 -0.033165 -0.0350854 -0.0370136 -0.0392602 -0.0416928 -0.0439459 -0.0452702 -0.0464535 -0.0475702 -0.0497373 -0.0505368 -0.0552771 -0.0565686 -0.0568732 -0.0575797 -0.0581401 -0.0584425 -0.0583981 -0.0587565 -0.0593099 -0.0599245 -0.0605928 -0.0614549 -0.0625298 -0.0643953 -0.0758313 0 0 0 0 0 0 0 0 0 0 0 0 0 0 0 0 0 0 0 0 0 0 0 0 0 0 0 0 0 -0.0599324 -0.0643746 -0.0649179 -0.0649666 -0.0649205 -0.0648378 -0.0647264 -0.0645877 -0.0644267 -0.0642533 -0.0640744 -0.063948 -0.0643533 -0.0684391 -0.0659319 0 0 0 0 0 0 0 0 0 0 0 0 0 0 0 0 0 0 0 0 0 0 0 0 0 0 0 0 0 0 0 0 0 0 0 0 0 0 0 0 0 0 0 0 0 0 0 0 0 0 0 0 0 0 0 0 0 0 0 0 0 0 0 0 0 0 0 0 0 0 0 0 0 0 0 0 0 0 0 0 0 0 0 0 0 0 0 0 0 0 0 0 0 0 0 0 0 0 0 0 0 0 0 0 0 0 0 0 0 0 0 0 0 0 0 0 0 0 0 0 0 0 0 0 0 0 -0.0586211 -0.0613124 -0.0614382 -0.0606772 -0.0591905 -0.0575037 -0.0563115 -0.0553617 -0.0544744 -0.0534363 -0.0520345 -0.0511203 -0.0510901 -0.0512748 -0.051413 -0.0514754 -0.0514749 -0.0514458 -0.0514024 -0.0513524 -0.051307 -0.0512756 -0.0512642 -0.0512765 -0.051313 -0.0513717 -0.051449 -0.0515403 -0.0516405 -0.0517445 -0.0518473 -0.0519446 -0.0520329 -0.0521095 -0.0521732 -0.0522232 -0.0522568 -0.0522675 -0.0522498 -0.0522123 -0.0522026 -0.0523479 -0.0526432 -0.0530804 -0.0547155 -0.0547434 -0.0535979 -0.0530605 -0.0527787 -0.0525196 -0.0522919 -0.0520971 -0.051927 -0.0517731 -0.0516266 -0.0514764 -0.0512911 -0.0509876 -0.0504268 -0.0495247 -0.0489646 -0.0495871 -0.0505723 -0.0512479 -0.051575 -0.0516828 -0.0516752 -0.0516198 -0.0515433 -0.0514522 -0.0513474 -0.0512304 -0.0511027 -0.0509664 -0.0508239 -0.0506776 -0.0505303 -0.0503851 -0.0502453 -0.0501151 -0.049999 -0.0499004 -0.0498182 -0.0497409 -0.0496531 -0.0495094 -0.0494695 -0.0502069 -0.0521221 -0.0524832 -0.0516987 -0.0515535 -0.051519 -0.0516122 -0.0517992 -0.0520391 -0.052336 -0.05269 -0.0531001 -0.0535645 -0.0540804 -0.0546103 -0.0551031 -0.0556568 -0.0562459 -0.056857 -0.0574489 -0.0579897 -0.0584595 -0.058855 -0.0591845 -0.0594605 -0.0596977 -0.0599092 -0.0601057 -0.0602947 -0.0604814 -0.0606683 -0.0608562 -0.0610437 -0.0612283 -0.0614062 -0.0615727 -0.061723 -0.0618519 -0.0619546 -0.0620267 -0.0620642 -0.0620629 -0.0620173 -0.0619174 -0.0617348 -0.06138 -0.0607781 -0.0599949 -0.0594942 -0.0591085 -0.0587647 -0.0584338 -0.0581032 -0.0577659 -0.0574171 -0.0570571 -0.0566973 -0.0563263 -0.0557232 -0.054468 -0.053099 -0.0527895 -0.0526361 -0.0524526 -0.0522346 -0.0520025 -0.051781 -0.0515703 -0.0513654 -0.0511608 -0.0509538 -0.0507428 -0.0505273 -0.050306 -0.0500751 -0.0498258 -0.0495444 -0.0492144 -0.0488331 -0.0484902 -0.0481991 -0.0479529 -0.0477434 -0.0475639 -0.0474089 -0.0472747 -0.0471586 -0.0470592 -0.0469755 -0.0469073 -0.0468543 -0.046816 -0.0467914 -0.0467785 -0.0467743 -0.046775 -0.0467764 -0.0467743 -0.0467652 -0.046746 -0.0467111 -0.0466477 -0.0465304 -0.0463203 -0.0459714 -0.0454776 -0.0448995 -0.0444229 -0.0443699 -0.0447248 -0.0451669 -0.0455266 -0.0457683 -0.045916 -0.0460004 -0.0460355 -0.046029 -0.0459854 -0.045908 -0.0457992 -0.0456617 -0.0454983 -0.0453117 -0.0451041 -0.0448759 -0.0446228 -0.044331 -0.0439629 -0.0434313 -0.0425824 -0.0412192 -0.0391577 -0.036249 -0.0323098 -0.0272634 -0.020845 -0.0122485 -1.95156e-18 