# vtk DataFile Version 2.0
iteration 1620
ASCII

DATASET STRUCTURED_POINTS
DIMENSIONS 621 64 1
ORIGIN 0 0 0
SPACING 0.00161031 0.00161031 0.00161031

POINT_DATA 39744
SCALARS P float 1
LOOKUP_TABLE default
0 0 0 0 0 0 0 0 0 0 0 0 0 0 0 0 0 0 0 0 0 0 0 0 0 0 0 0 0 0 0 0 0 0 0 0 0 0 0 0 0 0 0 0 0 0 0 0 0 0 0 0 0 0 0 0 0 0 0 0 0 0 0 0 0 0 0 0 0 0 0 0 0 0 0 0 0 0 0 0 0 0 0 0 0 0 0 0 0 0 0 0 0 0 0 0 0 0 0 0 0 0 0 0 0 0 0 0 0 0 0 0 0 0 0 0 0 0 0 0 0 0 0 0 0 0 0 0 0 0 0 0 0 0 0 0 0 0 0 0 0 0 0 0 0 0 0 0 0 0 0 0 0 0 0 0 0 0 0 0 0 0 0 0 0 0 0 0 0 0 0 0 0 0 0 0 0 0 0 0 0 0 0 0 0 0 0 0 0 0 0 0 0 0 0 0 0 0 0 0 0 0 0 0 0 0 0 0 0 0 0 0 0 0 0 0 0 0 0 0 0 0 0 0 0 0 0 0 0 0 0 0 0 0 0 0 0 0 0 0 0 0 0 0 0 0 0 0 0 0 0 0 0 0 0 0 0 0 0 0 0 0 0 0 0 0 0 0 0 0 0 0 0 0 0 0 0 0 0 0 0 0 0 0 0 0 0 0 0 0 0 0 0 0 0 0 0 0 0 0 0 0 0 0 0 0 0 0 0 0 0 0 0 0 0 0 0 0 0 0 0 0 0 0 0 0 0 0 0 0 0 0 0 0 0 0 0 0 0 0 0 0 0 0 0 0 0 0 0 0 0 0 0 0 0 0 0 0 0 0 0 0 0 0 0 0 0 0 0 0 0 0 0 0 0 0 0 0 0 0 0 0 0 0 0 0 0 0 0 0 0 0 0 0 0 0 0 0 0 0 0 0 0 0 0 0 0 0 0 0 0 0 0 0 0 0 0 0 0 0 0 0 0 0 0 0 0 0 0 0 0 0 0 0 0 0 0 0 0 0 0 0 0 0 0 0 0 0 0 0 0 0 0 0 0 0 0 0 0 0 0 0 0 0 0 0 0 0 0 0 0 0 0 0 0 0 0 0 0 0 0 0 0 0 0 0 0 0 0 0 0 0 0 0 0 0 0 0 0 0 0 0 0 0 0 0 0 0 0 0 0 0 0 0 0 0 0 0 0 0 0 0 0 0 0 0 0 0 0 0 0 0 0 0 0 0 0 0 0 0 0 0 0 0 0 0 0 0 0 0 0 0 0 0 0 0 0 0 0 0 0 0 0 0 0 0 0 0 0 0 0 0 0 0 0 0 0 0 0 0 0 0 0 0 0 0 0 0 0 0 0 0 0 0 0 0 0 0 0 0 0 0 0 0 0 0 0 0 0 0 0 0 0 0 0 0 0 0 0 0 0 
0.02 0.02 0.02 0.02 0.02 0.02 0.02 0.02 0.02 0.02 0.02 0.02 0.02 0.02 0.02 0.02 0.02 0.02 0.02 0.02 0.02 0.02 0.02 0.02 0.02 0.02 0.02 0.02 0.02 0.02 0.02 0.02 0.02 0.02 0.02 0.02 0.02 0.02 0.02 0.02 0.02 0.02 0.02 0.02 0.02 0.02 0.02 0.02 0.02 0.02 0.02 0.02 0.02 0.02 0.02 0.02 0.02 0.02 0.02 0.02 0.02 0.02 0.02 0.02 0.02 0.02 0.02 0.02 0.02 0.02 0.02 0.02 0.02 0.02 0.02 0.02 0.02 0.02 0.02 0.02 0.02 0.02 0.02 0.02 0.02 0.02 0.02 0.02 0.02 0.02 0.02 0.02 0.02 0.02 0.02 0.02 0.02 0.02 0.02 0.02 0.02 0.02 0.02 0.02 0.02 0.02 0.02 0.02 0.02 0.02 0.02 0.02 0.02 0.02 0.02 0.0200001 0.0200001 0.0200001 0.0200001 0.0200001 0.0200001 0.0200001 0.0200001 0.0200001 0.0200001 0.0200001 0.0200002 0.0200002 0.0200002 0.0200002 0.0200002 0.0200003 0.0200003 0.0200003 0.0200003 0.0200004 0.0200004 0.0200004 0.0200005 0.0200005 0.0200006 0.0200006 0.0200007 0.0200008 0.0200009 0.0200009 0.020001 0.0200011 0.0200012 0.0200014 0.0200015 0.0200016 0.0200018 0.0200019 0.0200021 0.0200023 0.0200026 0.0200028 0.0200031 0.0200033 0.0200036 0.020004 0.0200043 0.0200047 0.0200052 0.0200056 0.0200062 0.0200067 0.0200073 0.020008 0.0200087 0.0200094 0.0200102 0.0200111 0.0200121 0.0200131 0.0200142 0.0200154 0.0200166 0.020018 0.0200194 0.020021 0.0200226 0.0200244 0.0200263 0.0200282 0.0200303 0.0200326 0.0200349 0.0200374 0.02004 0.0200428 0.0200457 0.0200487 0.0200519 0.0200552 0.0200587 0.0200623 0.0200661 0.02007 0.020074 0.0200782 0.0200825 0.020087 0.0200916 0.0200963 0.0201011 0.0201061 0.0201111 0.0201163 0.0201215 0.0201268 0.0201322 0.0201377 0.0201433 0.0201489 0.0201546 0.0201603 0.020166 0.0201718 0.0201776 0.0201833 0.020189 0.0201947 0.0202004 0.020206 0.0202115 0.020217 0.0202224 0.0202276 0.0202328 0.0202379 0.0202428 0.0202477 0.0202524 0.0202569 0.0202614 0.0202656 0.0202697 0.0202737 0.0202775 0.0202811 0.0202845 0.0202877 0.0202908 0.0202936 0.0202963 0.0202988 0.020301 0.0203031 0.0203049 0.0203066 0.020308 0.0203092 0.0203103 0.0203111 0.0203117 0.0203121 0.0203122 0.0203122 0.020312 0.0203116 0.0203111 0.0203103 0.0203094 0.0203083 0.0203071 0.0203058 0.0203043 0.0203027 0.020301 0.0202993 0.0202975 0.0202957 0.0202939 0.020292 0.0202902 0.0202885 0.0202868 0.0202853 0.0202838 0.0202825 0.0202814 0.0202805 0.0202797 0.0202792 0.020279 0.0202791 0.0202794 0.0202801 0.0202811 0.0202824 0.020284 0.020286 0.0202884 0.0202911 0.0202941 0.0202975 0.0203012 0.0203053 0.0203096 0.0203142 0.0203191 0.0203242 0.0203295 0.020335 0.0203407 0.0203465 0.0203523 0.0203582 0.0203641 0.02037 0.0203758 0.0203816 0.0203872 0.0203926 0.0203978 0.0204028 0.0204076 0.020412 0.0204162 0.02042 0.0204235 0.0204266 0.0204294 0.0204317 0.0204337 0.0204353 0.0204365 0.0204373 0.0204376 0.0204376 0.0204372 0.0204365 0.0204353 0.0204337 0.0204318 0.0204295 0.0204268 0.0204238 0.0204204 0.0204166 0.0204123 0.0204077 0.0204025 0.0203968 0.0203905 0.0203834 0.0203754 0.0203664 0.0203563 0.020345 0.0203322 0.0203178 0.0203018 0.0202839 0.020264 0.020242 0.0202176 0.0201908 0.0201612 0.0201288 0.0200931 0.0200538 0.0200106 0.019963 0.0199104 0.019852 0.019787 0.0197145 0.0196332 0.0195419 0.019439 0.0193228 0.0191915 0.0190428 0.0188747 0.0186847 0.0184706 0.01823 0.0179608 0.017661 0.017329 0.0169637 0.0165643 0.01613 0.0156606 0.0151539 0.0146115 0.0140407 0.01349 0.0128861 0.0128082 0.0142251 0 0 0 0 0 0 0 0 0 0 0 0 0 0 0 0 0 0 0 0 0 0 0 0 0 0 0 0 0 0 0 0 0 0 0 0 0 0 0 0 0 0 0 0 0 0 0 0 0 0 0 0 0 0 0 0 0 0 0 0 0 0 0 0 0 0 0 0 0 0 0 0 0 0 0 0 0 0 0 0 0 0 0 0 0 0 0 0 0 0 0 0 0 0 0 0 0 0 0 0 0 0 0 0 0 0 0 0 0 0 0 0 0 0 0 0 0 0 0 0 0 0 0 0 0 0 0 0 0 0 0 0 0 0 0 0 0 0 0 0 0 0 0 0 0 0 0 0 0 0 0 0 0 0 0 0 0 0 0 0 0 0 0 0 0 0 0 0 0 0 0 0 0 0 0 0 0 0 0 0 0 0 0 0 0 0 0 0 0 0 0 0 0 0 0 0 0 0 0 0 0 0 0 0 0 0 0 0 0 0 0 0 0 0 0 0 0 0 0 0 0 0 0 0 0 0 0 
0.02 0.02 0.02 0.02 0.02 0.02 0.02 0.02 0.02 0.02 0.02 0.02 0.02 0.02 0.02 0.02 0.02 0.02 0.02 0.02 0.02 0.02 0.02 0.02 0.02 0.02 0.02 0.02 0.02 0.02 0.02 0.02 0.02 0.02 0.02 0.02 0.02 0.02 0.02 0.02 0.02 0.02 0.02 0.02 0.02 0.02 0.02 0.02 0.02 0.02 0.02 0.02 0.02 0.02 0.02 0.02 0.02 0.02 0.02 0.02 0.02 0.02 0.02 0.02 0.02 0.02 0.02 0.02 0.02 0.02 0.02 0.02 0.02 0.02 0.02 0.02 0.02 0.02 0.02 0.02 0.02 0.02 0.02 0.02 0.02 0.02 0.02 0.02 0.02 0.02 0.02 0.02 0.02 0.02 0.02 0.02 0.02 0.02 0.02 0.02 0.02 0.02 0.02 0.02 0.02 0.02 0.02 0.02 0.02 0.02 0.02 0.02 0.02 0.02 0.02 0.02 0.0200001 0.0200001 0.0200001 0.0200001 0.0200001 0.0200001 0.0200001 0.0200001 0.0200001 0.0200001 0.0200002 0.0200002 0.0200002 0.0200002 0.0200002 0.0200002 0.0200003 0.0200003 0.0200003 0.0200004 0.0200004 0.0200004 0.0200005 0.0200005 0.0200006 0.0200006 0.0200007 0.0200008 0.0200008 0.0200009 0.020001 0.0200011 0.0200012 0.0200013 0.0200015 0.0200016 0.0200017 0.0200019 0.0200021 0.0200023 0.0200025 0.0200027 0.020003 0.0200033 0.0200036 0.0200039 0.0200043 0.0200047 0.0200051 0.0200056 0.0200061 0.0200066 0.0200072 0.0200079 0.0200086 0.0200093 0.0200101 0.020011 0.0200119 0.0200129 0.020014 0.0200152 0.0200165 0.0200178 0.0200192 0.0200208 0.0200224 0.0200242 0.020026 0.020028 0.0200301 0.0200323 0.0200346 0.0200371 0.0200397 0.0200425 0.0200454 0.0200484 0.0200516 0.0200549 0.0200583 0.0200619 0.0200657 0.0200696 0.0200736 0.0200778 0.0200821 0.0200865 0.0200911 0.0200958 0.0201006 0.0201055 0.0201106 0.0201157 0.020121 0.0201263 0.0201317 0.0201372 0.0201427 0.0201483 0.020154 0.0201597 0.0201655 0.0201712 0.020177 0.0201827 0.0201885 0.0201942 0.0201998 0.0202054 0.020211 0.0202164 0.0202218 0.0202271 0.0202323 0.0202374 0.0202423 0.0202472 0.0202519 0.0202564 0.0202609 0.0202651 0.0202693 0.0202732 0.020277 0.0202806 0.020284 0.0202873 0.0202903 0.0202932 0.0202959 0.0202983 0.0203006 0.0203027 0.0203045 0.0203061 0.0203076 0.0203088 0.0203098 0.0203106 0.0203112 0.0203116 0.0203118 0.0203117 0.0203115 0.0203111 0.0203105 0.0203097 0.0203088 0.0203077 0.0203065 0.0203051 0.0203036 0.020302 0.0203003 0.0202985 0.0202967 0.0202948 0.0202929 0.0202911 0.0202892 0.0202874 0.0202857 0.0202841 0.0202826 0.0202812 0.02028 0.020279 0.0202782 0.0202777 0.0202774 0.0202773 0.0202776 0.0202782 0.0202791 0.0202803 0.0202818 0.0202838 0.020286 0.0202886 0.0202916 0.0202948 0.0202985 0.0203024 0.0203066 0.0203112 0.0203159 0.020321 0.0203262 0.0203316 0.0203372 0.0203429 0.0203486 0.0203545 0.0203603 0.0203661 0.0203719 0.0203776 0.0203832 0.0203886 0.0203938 0.0203988 0.0204035 0.020408 0.0204121 0.020416 0.0204195 0.0204227 0.0204255 0.0204279 0.0204299 0.0204316 0.0204328 0.0204337 0.0204341 0.0204342 0.0204339 0.0204332 0.0204321 0.0204306 0.0204288 0.0204266 0.020424 0.020421 0.0204176 0.0204138 0.0204097 0.020405 0.0203999 0.0203943 0.0203879 0.0203809 0.0203729 0.0203639 0.0203539 0.0203425 0.0203297 0.0203153 0.0202993 0.0202814 0.0202615 0.0202394 0.020215 0.0201881 0.0201585 0.0201259 0.0200901 0.0200507 0.0200075 0.0199597 0.019907 0.0198486 0.0197836 0.0197111 0.01963 0.0195389 0.0194363 0.0193205 0.0191896 0.0190416 0.0188741 0.0186849 0.0184717 0.0182321 0.0179639 0.0176653 0.0173346 0.0169705 0.0165721 0.0161386 0.0156701 0.0151657 0.0146271 0.0140723 0.0135607 0.0128935 0.0125195 0.012565 0.0117657 0.0108349 0.00996078 0.00902856 0.00793181 0.00695782 0.0071222 0 0 0 0 0 0 0 0 0 0 0 0 0 0 0 0 0 0 0 0 0 0 0 0 0 0 0 0 0 0 0 0 0 0 0 0 0 0 0 0 0 0 0 0 0 0 0 0 0 0 0 0 0 0 0 0 0 0 0 0 0 0 0 0 0 0 0 0 0 0 0 0 0 0 0 0 0 0 0 0 0 0 0 0 0 0 0 0 0 0 0 0 0 0 0 0 0 0 0 0 0 0 0 0 0 0 0 0 0 0 0 0 0 0 0 0 0 0 0 0 0 0 0 0 0 0 0 0 0 0 0 0 0 0 0 0 0 0 0 0 0 0 0 0 0 0 0 0 0 0 0 0 0 0 0 0 0 0 0 0 0 0 0 0 0 0 0 0 0 0 0 0 0 0 0 0 0 0 0 0 0 0 0 0 0 0 0 0 0 0 0 0 0 0 0 0 0 0 0 0 0 0 0 0 0 0 0 0 0 0 0 0 0 0 0 0 0 0 0 0 
0.02 0.02 0.02 0.02 0.02 0.02 0.02 0.02 0.02 0.02 0.02 0.02 0.02 0.02 0.02 0.02 0.02 0.02 0.02 0.02 0.02 0.02 0.02 0.02 0.02 0.02 0.02 0.02 0.02 0.02 0.02 0.02 0.02 0.02 0.02 0.02 0.02 0.02 0.02 0.02 0.02 0.02 0.02 0.02 0.02 0.02 0.02 0.02 0.02 0.02 0.02 0.02 0.02 0.02 0.02 0.02 0.02 0.02 0.02 0.02 0.02 0.02 0.02 0.02 0.02 0.02 0.02 0.02 0.02 0.02 0.02 0.02 0.02 0.02 0.02 0.02 0.02 0.02 0.02 0.02 0.02 0.02 0.02 0.02 0.02 0.02 0.02 0.02 0.02 0.02 0.02 0.02 0.02 0.02 0.02 0.02 0.02 0.02 0.02 0.02 0.02 0.02 0.02 0.02 0.02 0.02 0.02 0.02 0.02 0.02 0.02 0.02 0.02 0.02 0.02 0.02 0.0200001 0.0200001 0.0200001 0.0200001 0.0200001 0.0200001 0.0200001 0.0200001 0.0200001 0.0200001 0.0200001 0.0200002 0.0200002 0.0200002 0.0200002 0.0200002 0.0200003 0.0200003 0.0200003 0.0200003 0.0200004 0.0200004 0.0200005 0.0200005 0.0200006 0.0200006 0.0200007 0.0200007 0.0200008 0.0200009 0.020001 0.0200011 0.0200012 0.0200013 0.0200014 0.0200016 0.0200017 0.0200019 0.020002 0.0200022 0.0200025 0.0200027 0.0200029 0.0200032 0.0200035 0.0200038 0.0200042 0.0200046 0.020005 0.0200055 0.020006 0.0200065 0.0200071 0.0200077 0.0200084 0.0200092 0.02001 0.0200108 0.0200118 0.0200128 0.0200138 0.020015 0.0200162 0.0200176 0.020019 0.0200205 0.0200222 0.0200239 0.0200257 0.0200277 0.0200298 0.020032 0.0200343 0.0200367 0.0200393 0.0200421 0.0200449 0.0200479 0.0200511 0.0200544 0.0200578 0.0200614 0.0200652 0.020069 0.020073 0.0200772 0.0200815 0.0200859 0.0200905 0.0200952 0.0201 0.0201049 0.0201099 0.0201151 0.0201203 0.0201256 0.020131 0.0201365 0.020142 0.0201476 0.0201533 0.020159 0.0201647 0.0201704 0.0201762 0.0201819 0.0201877 0.0201934 0.020199 0.0202046 0.0202101 0.0202156 0.020221 0.0202262 0.0202314 0.0202365 0.0202414 0.0202463 0.020251 0.0202555 0.02026 0.0202642 0.0202683 0.0202723 0.020276 0.0202796 0.0202831 0.0202863 0.0202893 0.0202922 0.0202948 0.0202973 0.0202995 0.0203016 0.0203034 0.020305 0.0203064 0.0203076 0.0203086 0.0203094 0.0203099 0.0203103 0.0203104 0.0203104 0.0203101 0.0203096 0.020309 0.0203082 0.0203072 0.020306 0.0203047 0.0203033 0.0203017 0.0203 0.0202982 0.0202964 0.0202945 0.0202925 0.0202905 0.0202885 0.0202866 0.0202847 0.0202828 0.0202811 0.0202795 0.020278 0.0202766 0.0202755 0.0202746 0.0202738 0.0202734 0.0202732 0.0202733 0.0202737 0.0202744 0.0202754 0.0202768 0.0202785 0.0202806 0.020283 0.0202858 0.0202888 0.0202923 0.020296 0.0203 0.0203043 0.0203089 0.0203138 0.0203188 0.020324 0.0203294 0.020335 0.0203406 0.0203463 0.020352 0.0203577 0.0203633 0.0203689 0.0203744 0.0203797 0.0203849 0.0203898 0.0203945 0.020399 0.0204032 0.020407 0.0204106 0.0204138 0.0204167 0.0204192 0.0204213 0.020423 0.0204244 0.0204254 0.020426 0.0204262 0.020426 0.0204255 0.0204246 0.0204233 0.0204216 0.0204195 0.0204171 0.0204142 0.020411 0.0204074 0.0204034 0.0203989 0.0203939 0.0203883 0.0203821 0.0203751 0.0203673 0.0203584 0.0203484 0.020337 0.0203243 0.02031 0.0202939 0.020276 0.0202561 0.020234 0.0202095 0.0201825 0.0201528 0.0201201 0.0200842 0.0200447 0.0200012 0.0199533 0.0199005 0.0198419 0.0197768 0.0197043 0.0196232 0.0195322 0.0194297 0.0193142 0.0191836 0.0190359 0.018869 0.0186803 0.0184677 0.0182287 0.0179612 0.0176632 0.0173329 0.0169693 0.0165715 0.0161391 0.0156732 0.0151757 0.0146504 0.0141221 0.0136364 0.0131595 0.0125316 0.0122234 0.0115172 0.0106942 0.00983406 0.00889848 0.00787906 0.00689928 0.00610623 0.00496913 0.00358665 0.00233455 0.000357982 0 0 0 0 0 0 0 0 0 0 0 0 0 0 0 0 0 0 0 0 0 0 0 0 0 0 0 0 0 0 0 0 0 0 0 0 0 0 0 0 0 0 0 0 0 0 0 0 0 0 0 0 0 0 0 0 0 0 0 0 0 0 0 0 0 0 0 0 0 0 0 0 0 0 0 0 0 0 0 0 0 0 0 0 0 0 0 0 0 0 0 0 0 0 0 0 0 0 0 0 0 0 0 0 0 0 0 0 0 0 0 0 0 0 0 0 0 0 0 0 0 0 0 0 0 0 0 0 0 0 0 0 0 0 0 0 0 0 0 0 0 0 0 0 0 0 0 0 0 0 0 0 0 0 0 0 0 0 0 0 0 0 0 0 0 0 0 0 0 0 0 0 0 0 0 0 0 0 0 0 0 0 0 0 0 0 0 0 0 0 0 0 0 0 0 0 0 0 0 0 0 0 0 0 0 0 0 0 0 0 0 0 0 0 0 0 
0.02 0.02 0.02 0.02 0.02 0.02 0.02 0.02 0.02 0.02 0.02 0.02 0.02 0.02 0.02 0.02 0.02 0.02 0.02 0.02 0.02 0.02 0.02 0.02 0.02 0.02 0.02 0.02 0.02 0.02 0.02 0.02 0.02 0.02 0.02 0.02 0.02 0.02 0.02 0.02 0.02 0.02 0.02 0.02 0.02 0.02 0.02 0.02 0.02 0.02 0.02 0.02 0.02 0.02 0.02 0.02 0.02 0.02 0.02 0.02 0.02 0.02 0.02 0.02 0.02 0.02 0.02 0.02 0.02 0.02 0.02 0.02 0.02 0.02 0.02 0.02 0.02 0.02 0.02 0.02 0.02 0.02 0.02 0.02 0.02 0.02 0.02 0.02 0.02 0.02 0.02 0.02 0.02 0.02 0.02 0.02 0.02 0.02 0.02 0.02 0.02 0.02 0.02 0.02 0.02 0.02 0.02 0.02 0.02 0.02 0.02 0.02 0.02 0.02 0.02 0.02 0.0200001 0.0200001 0.0200001 0.0200001 0.0200001 0.0200001 0.0200001 0.0200001 0.0200001 0.0200001 0.0200001 0.0200002 0.0200002 0.0200002 0.0200002 0.0200002 0.0200003 0.0200003 0.0200003 0.0200003 0.0200004 0.0200004 0.0200004 0.0200005 0.0200005 0.0200006 0.0200007 0.0200007 0.0200008 0.0200009 0.0200009 0.020001 0.0200011 0.0200012 0.0200014 0.0200015 0.0200016 0.0200018 0.020002 0.0200022 0.0200024 0.0200026 0.0200029 0.0200031 0.0200034 0.0200037 0.0200041 0.0200045 0.0200049 0.0200053 0.0200058 0.0200063 0.0200069 0.0200076 0.0200082 0.020009 0.0200097 0.0200106 0.0200115 0.0200125 0.0200136 0.0200147 0.0200159 0.0200173 0.0200187 0.0200202 0.0200218 0.0200235 0.0200253 0.0200273 0.0200293 0.0200315 0.0200338 0.0200362 0.0200388 0.0200415 0.0200444 0.0200474 0.0200505 0.0200538 0.0200572 0.0200607 0.0200644 0.0200683 0.0200723 0.0200764 0.0200807 0.0200851 0.0200896 0.0200943 0.0200991 0.020104 0.020109 0.0201141 0.0201193 0.0201246 0.02013 0.0201354 0.0201409 0.0201465 0.0201521 0.0201578 0.0201635 0.0201692 0.020175 0.0201807 0.0201864 0.020192 0.0201977 0.0202032 0.0202087 0.0202142 0.0202195 0.0202248 0.0202299 0.020235 0.0202399 0.0202447 0.0202494 0.0202539 0.0202583 0.0202625 0.0202666 0.0202705 0.0202743 0.0202778 0.0202812 0.0202844 0.0202874 0.0202902 0.0202929 0.0202953 0.0202975 0.0202995 0.0203013 0.0203029 0.0203042 0.0203054 0.0203063 0.020307 0.0203075 0.0203078 0.0203079 0.0203078 0.0203075 0.0203069 0.0203062 0.0203053 0.0203042 0.020303 0.0203016 0.0203 0.0202984 0.0202966 0.0202947 0.0202927 0.0202906 0.0202885 0.0202864 0.0202843 0.0202822 0.0202801 0.0202781 0.0202762 0.0202744 0.0202727 0.0202712 0.0202698 0.0202687 0.0202677 0.020267 0.0202666 0.0202665 0.0202666 0.0202671 0.0202678 0.0202689 0.0202704 0.0202722 0.0202743 0.0202767 0.0202795 0.0202827 0.0202861 0.0202898 0.0202939 0.0202982 0.0203027 0.0203075 0.0203125 0.0203176 0.0203229 0.0203283 0.0203337 0.0203392 0.0203447 0.0203502 0.0203557 0.020361 0.0203662 0.0203713 0.0203762 0.0203809 0.0203853 0.0203895 0.0203934 0.020397 0.0204003 0.0204032 0.0204058 0.0204081 0.02041 0.0204115 0.0204127 0.0204135 0.0204139 0.020414 0.0204137 0.020413 0.0204119 0.0204105 0.0204086 0.0204064 0.0204038 0.0204008 0.0203974 0.0203936 0.0203893 0.0203846 0.0203792 0.0203731 0.0203663 0.0203586 0.0203499 0.02034 0.0203288 0.0203161 0.0203018 0.0202858 0.0202679 0.020248 0.0202258 0.0202013 0.0201742 0.0201444 0.0201115 0.0200754 0.0200357 0.0199921 0.019944 0.0198909 0.0198322 0.019767 0.0196944 0.0196133 0.0195224 0.0194202 0.019305 0.0191748 0.0190277 0.0188615 0.0186736 0.0184619 0.0182239 0.0179573 0.0176603 0.017331 0.0169685 0.0165723 0.0161424 0.0156817 0.0151955 0.0146909 0.0141833 0.0137075 0.0132624 0.0127632 0.0121256 0.0113807 0.0105648 0.00971179 0.00877737 0.00780139 0.00681207 0.00582388 0.00468729 0.00338048 0.00201167 0.000239708 -0.00178382 -0.00419365 0 0 0 0 0 0 0 0 0 0 0 0 0 0 0 0 0 0 0 0 0 0 0 0 0 0 0 0 0 0 0 0 0 0 0 0 0 0 0 0 0 0 0 0 0 0 0 0 0 0 0 0 0 0 0 0 0 0 0 0 0 0 0 0 0 0 0 0 0 0 0 0 0 0 0 0 0 0 0 0 0 0 0 0 0 0 0 0 0 0 0 0 0 0 0 0 0 0 0 0 0 0 0 0 0 0 0 0 0 0 0 0 0 0 0 0 0 0 0 0 0 0 0 0 0 0 0 0 0 0 0 0 0 0 0 0 0 0 0 0 0 0 0 0 0 0 0 0 0 0 0 0 0 0 0 0 0 0 0 0 0 0 0 0 0 0 0 0 0 0 0 0 0 0 0 0 0 0 0 0 0 0 0 0 0 0 0 0 0 0 0 0 0 0 0 0 0 0 0 0 0 0 0 0 0 0 0 0 0 0 0 0 0 -2.05998e-18 
0.02 0.02 0.02 0.02 0.02 0.02 0.02 0.02 0.02 0.02 0.02 0.02 0.02 0.02 0.02 0.02 0.02 0.02 0.02 0.02 0.02 0.02 0.02 0.02 0.02 0.02 0.02 0.02 0.02 0.02 0.02 0.02 0.02 0.02 0.02 0.02 0.02 0.02 0.02 0.02 0.02 0.02 0.02 0.02 0.02 0.02 0.02 0.02 0.02 0.02 0.02 0.02 0.02 0.02 0.02 0.02 0.02 0.02 0.02 0.02 0.02 0.02 0.02 0.02 0.02 0.02 0.02 0.02 0.02 0.02 0.02 0.02 0.02 0.02 0.02 0.02 0.02 0.02 0.02 0.02 0.02 0.02 0.02 0.02 0.02 0.02 0.02 0.02 0.02 0.02 0.02 0.02 0.02 0.02 0.02 0.02 0.02 0.02 0.02 0.02 0.02 0.02 0.02 0.02 0.02 0.02 0.02 0.02 0.02 0.02 0.02 0.02 0.02 0.02 0.02 0.02 0.02 0.0200001 0.0200001 0.0200001 0.0200001 0.0200001 0.0200001 0.0200001 0.0200001 0.0200001 0.0200001 0.0200001 0.0200002 0.0200002 0.0200002 0.0200002 0.0200002 0.0200003 0.0200003 0.0200003 0.0200003 0.0200004 0.0200004 0.0200005 0.0200005 0.0200006 0.0200006 0.0200007 0.0200007 0.0200008 0.0200009 0.020001 0.0200011 0.0200012 0.0200013 0.0200014 0.0200016 0.0200017 0.0200019 0.0200021 0.0200023 0.0200025 0.0200027 0.020003 0.0200033 0.0200036 0.0200039 0.0200043 0.0200047 0.0200052 0.0200056 0.0200062 0.0200067 0.0200073 0.020008 0.0200087 0.0200095 0.0200103 0.0200112 0.0200122 0.0200132 0.0200144 0.0200156 0.0200169 0.0200183 0.0200197 0.0200213 0.020023 0.0200248 0.0200267 0.0200288 0.0200309 0.0200332 0.0200356 0.0200381 0.0200408 0.0200436 0.0200466 0.0200497 0.0200529 0.0200563 0.0200598 0.0200635 0.0200673 0.0200713 0.0200754 0.0200796 0.020084 0.0200885 0.0200931 0.0200979 0.0201027 0.0201077 0.0201128 0.020118 0.0201232 0.0201286 0.020134 0.0201395 0.020145 0.0201506 0.0201562 0.0201619 0.0201675 0.0201732 0.0201789 0.0201845 0.0201902 0.0201957 0.0202013 0.0202067 0.0202121 0.0202174 0.0202226 0.0202277 0.0202327 0.0202376 0.0202424 0.020247 0.0202515 0.0202558 0.02026 0.020264 0.0202679 0.0202716 0.0202751 0.0202784 0.0202816 0.0202845 0.0202873 0.0202899 0.0202922 0.0202944 0.0202963 0.0202981 0.0202996 0.0203009 0.020302 0.0203028 0.0203035 0.0203039 0.0203041 0.0203041 0.0203039 0.0203035 0.0203029 0.020302 0.020301 0.0202998 0.0202985 0.0202969 0.0202953 0.0202935 0.0202915 0.0202895 0.0202873 0.0202851 0.0202829 0.0202806 0.0202783 0.020276 0.0202737 0.0202715 0.0202693 0.0202673 0.0202653 0.0202635 0.0202619 0.0202605 0.0202593 0.0202583 0.0202576 0.0202571 0.0202569 0.020257 0.0202575 0.0202582 0.0202593 0.0202607 0.0202625 0.0202646 0.020267 0.0202697 0.0202728 0.0202762 0.0202798 0.0202838 0.0202879 0.0202924 0.020297 0.0203018 0.0203068 0.0203119 0.020317 0.0203223 0.0203276 0.0203328 0.0203381 0.0203433 0.0203483 0.0203533 0.0203581 0.0203627 0.0203671 0.0203713 0.0203753 0.0203789 0.0203823 0.0203854 0.0203881 0.0203906 0.0203927 0.0203944 0.0203958 0.0203969 0.0203976 0.0203979 0.0203979 0.0203975 0.0203968 0.0203957 0.0203941 0.0203922 0.02039 0.0203873 0.0203842 0.0203807 0.0203767 0.0203721 0.020367 0.0203612 0.0203546 0.0203471 0.0203386 0.0203288 0.0203177 0.0203052 0.020291 0.0202751 0.0202572 0.0202373 0.0202151 0.0201905 0.0201633 0.0201333 0.0201003 0.020064 0.0200241 0.0199802 0.0199319 0.0198787 0.0198198 0.0197545 0.0196818 0.0196008 0.0195101 0.0194081 0.0192934 0.0191639 0.0190176 0.0188523 0.0186656 0.0184552 0.0182186 0.0179536 0.0176583 0.017331 0.016971 0.0165784 0.016155 0.0157044 0.0152341 0.0147509 0.0142605 0.013771 0.0132678 0.0127131 0.0120511 0.0112972 0.0104678 0.00958886 0.00865687 0.00768947 0.00665585 0.00558986 0.00439964 0.00309078 0.00166549 -1.24772e-05 -0.00192257 -0.00405076 -0.00702187 -0.0105175 -0.0139873 0 0 0 0 0 0 0 0 0 0 0 0 0 0 0 0 0 0 0 0 0 0 0 0 0 0 0 0 0 0 0 0 0 0 0 0 0 0 0 0 0 0 0 0 0 0 0 0 0 0 0 0 0 0 0 0 0 0 0 0 0 0 0 0 0 0 0 0 0 0 0 0 0 0 0 0 0 0 0 0 0 0 0 0 0 0 0 0 0 0 0 0 0 0 0 0 0 0 0 0 0 0 0 0 0 0 0 0 0 0 0 0 0 0 0 0 0 0 0 0 0 0 0 0 0 0 0 0 0 0 0 0 0 0 0 0 0 0 0 0 0 0 0 0 0 0 0 0 0 0 0 0 0 0 0 0 0 0 0 0 0 0 0 0 0 0 0 0 0 0 0 0 0 0 0 0 0 0 0 0 0 0 0 0 0 0 0 0 0 0 0 0 0 0 0 0 0 0 0 0 0 0 0 0 0 0 0 0 0 -0.0052714 4.33681e-19 
0.02 0.02 0.02 0.02 0.02 0.02 0.02 0.02 0.02 0.02 0.02 0.02 0.02 0.02 0.02 0.02 0.02 0.02 0.02 0.02 0.02 0.02 0.02 0.02 0.02 0.02 0.02 0.02 0.02 0.02 0.02 0.02 0.02 0.02 0.02 0.02 0.02 0.02 0.02 0.02 0.02 0.02 0.02 0.02 0.02 0.02 0.02 0.02 0.02 0.02 0.02 0.02 0.02 0.02 0.02 0.02 0.02 0.02 0.02 0.02 0.02 0.02 0.02 0.02 0.02 0.02 0.02 0.02 0.02 0.02 0.02 0.02 0.02 0.02 0.02 0.02 0.02 0.02 0.02 0.02 0.02 0.02 0.02 0.02 0.02 0.02 0.02 0.02 0.02 0.02 0.02 0.02 0.02 0.02 0.02 0.02 0.02 0.02 0.02 0.02 0.02 0.02 0.02 0.02 0.02 0.02 0.02 0.02 0.02 0.02 0.02 0.02 0.02 0.02 0.02 0.02 0.02 0.02 0.0200001 0.0200001 0.0200001 0.0200001 0.0200001 0.0200001 0.0200001 0.0200001 0.0200001 0.0200001 0.0200001 0.0200002 0.0200002 0.0200002 0.0200002 0.0200002 0.0200003 0.0200003 0.0200003 0.0200004 0.0200004 0.0200004 0.0200005 0.0200005 0.0200006 0.0200006 0.0200007 0.0200008 0.0200008 0.0200009 0.020001 0.0200011 0.0200012 0.0200014 0.0200015 0.0200016 0.0200018 0.020002 0.0200022 0.0200024 0.0200026 0.0200029 0.0200031 0.0200034 0.0200038 0.0200041 0.0200045 0.020005 0.0200054 0.0200059 0.0200065 0.0200071 0.0200077 0.0200084 0.0200092 0.02001 0.0200109 0.0200118 0.0200128 0.0200139 0.0200151 0.0200164 0.0200178 0.0200192 0.0200208 0.0200224 0.0200242 0.0200261 0.0200281 0.0200302 0.0200324 0.0200348 0.0200373 0.0200399 0.0200427 0.0200456 0.0200487 0.0200519 0.0200552 0.0200587 0.0200623 0.0200661 0.02007 0.0200741 0.0200783 0.0200826 0.0200871 0.0200917 0.0200964 0.0201012 0.0201061 0.0201112 0.0201163 0.0201215 0.0201268 0.0201321 0.0201376 0.020143 0.0201486 0.0201541 0.0201597 0.0201653 0.0201709 0.0201766 0.0201821 0.0201877 0.0201932 0.0201987 0.0202041 0.0202094 0.0202146 0.0202198 0.0202248 0.0202298 0.0202346 0.0202393 0.0202438 0.0202482 0.0202525 0.0202566 0.0202606 0.0202644 0.020268 0.0202714 0.0202747 0.0202778 0.0202806 0.0202833 0.0202858 0.0202881 0.0202902 0.020292 0.0202937 0.0202951 0.0202963 0.0202973 0.0202981 0.0202986 0.020299 0.0202991 0.020299 0.0202987 0.0202981 0.0202974 0.0202965 0.0202953 0.020294 0.0202925 0.0202908 0.020289 0.020287 0.0202849 0.0202827 0.0202804 0.0202779 0.0202755 0.020273 0.0202704 0.0202679 0.0202653 0.0202629 0.0202604 0.0202581 0.0202559 0.0202538 0.0202518 0.0202501 0.0202485 0.0202472 0.0202461 0.0202452 0.0202447 0.0202444 0.0202444 0.0202447 0.0202454 0.0202463 0.0202476 0.0202493 0.0202512 0.0202535 0.0202561 0.0202591 0.0202623 0.0202658 0.0202695 0.0202735 0.0202777 0.0202821 0.0202867 0.0202915 0.0202963 0.0203012 0.0203062 0.0203113 0.0203163 0.0203213 0.0203262 0.020331 0.0203357 0.0203403 0.0203447 0.0203489 0.0203529 0.0203566 0.0203601 0.0203633 0.0203663 0.0203689 0.0203713 0.0203733 0.020375 0.0203764 0.0203774 0.0203781 0.0203785 0.0203785 0.0203781 0.0203774 0.0203763 0.0203748 0.0203729 0.0203706 0.0203678 0.0203647 0.020361 0.0203568 0.020352 0.0203465 0.0203402 0.0203329 0.0203246 0.020315 0.0203041 0.0202917 0.0202777 0.0202618 0.020244 0.0202241 0.0202019 0.0201772 0.0201499 0.0201198 0.0200866 0.0200501 0.02001 0.0199659 0.0199174 0.0198639 0.0198048 0.0197394 0.0196668 0.0195859 0.0194954 0.0193939 0.0192798 0.0191511 0.0190059 0.0188418 0.0186567 0.018448 0.0182135 0.0179509 0.0176584 0.0173346 0.0169794 0.0165938 0.0161805 0.0157437 0.0152897 0.0148239 0.0143429 0.0138354 0.0132965 0.0126854 0.0119934 0.0112203 0.0103746 0.00947374 0.00852672 0.00754125 0.00649235 0.00535356 0.00410482 0.00274981 0.00127092 -0.000393558 -0.00234721 -0.00447387 -0.00706174 -0.0100199 -0.0138256 -0.0188522 -0.0230549 0 0 0 0 0 0 0 0 0 0 0 0 0 0 0 0 0 0 0 0 0 0 0 0 0 0 0 0 0 0 0 0 0 0 0 0 0 0 0 0 0 0 0 0 0 0 0 0 0 0 0 0 0 0 0 0 0 0 0 0 0 0 0 0 0 0 0 0 0 0 0 0 0 0 0 0 0 0 0 0 0 0 0 0 0 0 0 0 0 0 0 0 0 0 0 0 0 0 0 0 0 0 0 0 0 0 0 0 0 0 0 0 0 0 0 0 0 0 0 0 0 0 0 0 0 0 0 0 0 0 0 0 0 0 0 0 0 0 0 0 0 0 0 0 0 0 0 0 0 0 0 0 0 0 0 0 0 0 0 0 0 0 0 0 0 0 0 0 0 0 0 0 0 0 0 0 0 0 0 0 0 0 0 0 0 0 0 0 0 0 0 0 0 0 0 0 0 0 0 0 0 0 0 0 0 0 -0.0180629 -0.00935091 0 
0.02 0.02 0.02 0.02 0.02 0.02 0.02 0.02 0.02 0.02 0.02 0.02 0.02 0.02 0.02 0.02 0.02 0.02 0.02 0.02 0.02 0.02 0.02 0.02 0.02 0.02 0.02 0.02 0.02 0.02 0.02 0.02 0.02 0.02 0.02 0.02 0.02 0.02 0.02 0.02 0.02 0.02 0.02 0.02 0.02 0.02 0.02 0.02 0.02 0.02 0.02 0.02 0.02 0.02 0.02 0.02 0.02 0.02 0.02 0.02 0.02 0.02 0.02 0.02 0.02 0.02 0.02 0.02 0.02 0.02 0.02 0.02 0.02 0.02 0.02 0.02 0.02 0.02 0.02 0.02 0.02 0.02 0.02 0.02 0.02 0.02 0.02 0.02 0.02 0.02 0.02 0.02 0.02 0.02 0.02 0.02 0.02 0.02 0.02 0.02 0.02 0.02 0.02 0.02 0.02 0.02 0.02 0.02 0.02 0.02 0.02 0.02 0.02 0.02 0.02 0.02 0.02 0.02 0.02 0.0200001 0.0200001 0.0200001 0.0200001 0.0200001 0.0200001 0.0200001 0.0200001 0.0200001 0.0200001 0.0200001 0.0200002 0.0200002 0.0200002 0.0200002 0.0200002 0.0200003 0.0200003 0.0200003 0.0200004 0.0200004 0.0200004 0.0200005 0.0200005 0.0200006 0.0200006 0.0200007 0.0200008 0.0200009 0.020001 0.0200011 0.0200012 0.0200013 0.0200014 0.0200015 0.0200017 0.0200019 0.020002 0.0200022 0.0200025 0.0200027 0.020003 0.0200033 0.0200036 0.0200039 0.0200043 0.0200047 0.0200052 0.0200057 0.0200062 0.0200068 0.0200074 0.0200081 0.0200088 0.0200096 0.0200105 0.0200114 0.0200124 0.0200135 0.0200146 0.0200159 0.0200172 0.0200186 0.0200201 0.0200217 0.0200235 0.0200253 0.0200273 0.0200294 0.0200316 0.0200339 0.0200363 0.0200389 0.0200417 0.0200445 0.0200475 0.0200507 0.020054 0.0200574 0.020061 0.0200647 0.0200685 0.0200725 0.0200767 0.020081 0.0200854 0.0200899 0.0200945 0.0200993 0.0201042 0.0201092 0.0201142 0.0201194 0.0201246 0.0201299 0.0201353 0.0201407 0.0201461 0.0201516 0.0201571 0.0201626 0.0201682 0.0201737 0.0201792 0.0201847 0.0201901 0.0201955 0.0202008 0.020206 0.0202112 0.0202163 0.0202212 0.0202261 0.0202308 0.0202354 0.0202399 0.0202442 0.0202484 0.0202524 0.0202563 0.02026 0.0202635 0.0202668 0.02027 0.020273 0.0202758 0.0202783 0.0202807 0.0202829 0.0202849 0.0202866 0.0202882 0.0202895 0.0202906 0.0202915 0.0202921 0.0202926 0.0202928 0.0202928 0.0202926 0.0202921 0.0202914 0.0202906 0.0202895 0.0202882 0.0202867 0.020285 0.0202832 0.0202812 0.020279 0.0202767 0.0202743 0.0202717 0.0202691 0.0202664 0.0202636 0.0202608 0.020258 0.0202551 0.0202524 0.0202496 0.0202469 0.0202444 0.0202419 0.0202396 0.0202374 0.0202355 0.0202337 0.0202322 0.0202309 0.0202298 0.0202291 0.0202286 0.0202284 0.0202286 0.020229 0.0202298 0.0202309 0.0202324 0.0202341 0.0202362 0.0202386 0.0202413 0.0202443 0.0202475 0.020251 0.0202548 0.0202587 0.0202629 0.0202672 0.0202717 0.0202763 0.0202809 0.0202857 0.0202905 0.0202952 0.0203 0.0203047 0.0203093 0.0203138 0.0203182 0.0203224 0.0203265 0.0203304 0.020334 0.0203374 0.0203406 0.0203435 0.0203461 0.0203485 0.0203506 0.0203523 0.0203538 0.0203549 0.0203557 0.0203562 0.0203563 0.020356 0.0203553 0.0203543 0.0203529 0.020351 0.0203487 0.0203459 0.0203427 0.0203389 0.0203344 0.0203292 0.0203232 0.0203162 0.0203082 0.0202988 0.0202882 0.0202759 0.020262 0.0202462 0.0202285 0.0202086 0.0201863 0.0201616 0.0201342 0.0201039 0.0200706 0.0200339 0.0199936 0.0199493 0.0199005 0.0198469 0.0197877 0.0197223 0.0196497 0.019569 0.0194789 0.0193779 0.0192645 0.0191369 0.0189929 0.0188305 0.0186473 0.0184409 0.0182092 0.01795 0.0176618 0.0173438 0.0169962 0.0166206 0.0162202 0.0157988 0.0153592 0.0149022 0.0144214 0.0139018 0.0133227 0.0126787 0.011958 0.0111618 0.010297 0.00937403 0.00839828 0.00736976 0.00627316 0.0050903 0.00379997 0.0023834 0.000832998 -0.000887381 -0.0027998 -0.00504767 -0.00753784 -0.0103366 -0.0136515 -0.0175945 -0.0224389 -0.0294091 0 0 0 0 0 0 0 0 0 0 0 0 0 0 0 0 0 0 0 0 0 0 0 0 0 0 0 0 0 0 0 0 0 0 0 0 0 0 0 0 0 0 0 0 0 0 0 0 0 0 0 0 0 0 0 0 0 0 0 0 0 0 0 0 0 0 0 0 0 0 0 0 0 0 0 0 0 0 0 0 0 0 0 0 0 0 0 0 0 0 0 0 0 0 0 0 0 0 0 0 0 0 0 0 0 0 0 0 0 0 0 0 0 0 0 0 0 0 0 0 0 0 0 0 0 0 0 0 0 0 0 0 0 0 0 0 0 0 0 0 0 0 0 0 0 0 0 0 0 0 0 0 0 0 0 0 0 0 0 0 0 0 0 0 0 0 0 0 0 0 0 0 0 0 0 0 0 0 0 0 0 0 0 0 0 0 0 0 0 0 0 0 0 0 0 0 0 0 0 0 0 0 0 -0.037255 -0.0309655 -0.0222732 -0.0122377 1.95156e-18 