# vtk DataFile Version 2.0
iteration 2457
ASCII

DATASET STRUCTURED_POINTS
DIMENSIONS 621 64 1
ORIGIN 0 0 0
SPACING 0.00161031 0.00161031 0.00161031

POINT_DATA 39744
SCALARS P float 1
LOOKUP_TABLE default
0 0 0 0 0 0 0 0 0 0 0 0 0 0 0 0 0 0 0 0 0 0 0 0 0 0 0 0 0 0 0 0 0 0 0 0 0 0 0 0 0 0 0 0 0 0 0 0 0 0 0 0 0 0 0 0 0 0 0 0 0 0 0 0 0 0 0 0 0 0 0 0 0 0 0 0 0 0 0 0 0 0 0 0 0 0 0 0 0 0 0 0 0 0 0 0 0 0 0 0 0 0 0 0 0 0 0 0 0 0 0 0 0 0 0 0 0 0 0 0 0 0 0 0 0 0 0 0 0 0 0 0 0 0 0 0 0 0 0 0 0 0 0 0 0 0 0 0 0 0 0 0 0 0 0 0 0 0 0 0 0 0 0 0 0 0 0 0 0 0 0 0 0 0 0 0 0 0 0 0 0 0 0 0 0 0 0 0 0 0 0 0 0 0 0 0 0 0 0 0 0 0 0 0 0 0 0 0 0 0 0 0 0 0 0 0 0 0 0 0 0 0 0 0 0 0 0 0 0 0 0 0 0 0 0 0 0 0 0 0 0 0 0 0 0 0 0 0 0 0 0 0 0 0 0 0 0 0 0 0 0 0 0 0 0 0 0 0 0 0 0 0 0 0 0 0 0 0 0 0 0 0 0 0 0 0 0 0 0 0 0 0 0 0 0 0 0 0 0 0 0 0 0 0 0 0 0 0 0 0 0 0 0 0 0 0 0 0 0 0 0 0 0 0 0 0 0 0 0 0 0 0 0 0 0 0 0 0 0 0 0 0 0 0 0 0 0 0 0 0 0 0 0 0 0 0 0 0 0 0 0 0 0 0 0 0 0 0 0 0 0 0 0 0 0 0 0 0 0 0 0 0 0 0 0 0 0 0 0 0 0 0 0 0 0 0 0 0 0 0 0 0 0 0 0 0 0 0 0 0 0 0 0 0 0 0 0 0 0 0 0 0 0 0 0 0 0 0 0 0 0 0 0 0 0 0 0 0 0 0 0 0 0 0 0 0 0 0 0 0 0 0 0 0 0 0 0 0 0 0 0 0 0 0 0 0 0 0 0 0 0 0 0 0 0 0 0 0 0 0 0 0 0 0 0 0 0 0 0 0 0 0 0 0 0 0 0 0 0 0 0 0 0 0 0 0 0 0 0 0 0 0 0 0 0 0 0 0 0 0 0 0 0 0 0 0 0 0 0 0 0 0 0 0 0 0 0 0 0 0 0 0 0 0 0 0 0 0 0 0 0 0 0 0 0 0 0 0 0 0 0 0 0 0 0 0 0 0 0 0 0 0 0 0 0 0 0 0 0 0 0 0 0 0 0 0 0 0 0 0 0 0 0 0 0 0 0 0 0 0 0 0 0 0 0 0 0 0 0 0 0 0 0 0 0 0 0 0 0 0 0 
0.0199292 0.0199715 0.0200169 0.0200689 0.0201223 0.0201759 0.0202294 0.0202828 0.0203357 0.0203883 0.0204404 0.0204919 0.0205429 0.0205934 0.0206431 0.0206922 0.0207406 0.0207883 0.0208352 0.0208813 0.0209266 0.0209711 0.0210147 0.0210574 0.0210992 0.02114 0.0211799 0.0212187 0.0212565 0.0212933 0.021329 0.0213635 0.021397 0.0214293 0.0214604 0.0214903 0.021519 0.0215464 0.0215726 0.0215975 0.0216212 0.0216435 0.0216645 0.0216842 0.0217025 0.0217195 0.0217351 0.0217494 0.0217623 0.0217738 0.021784 0.0217928 0.0218002 0.0218062 0.0218108 0.0218141 0.021816 0.0218166 0.0218158 0.0218137 0.0218102 0.0218054 0.0217993 0.0217919 0.0217833 0.0217733 0.0217622 0.0217498 0.0217362 0.0217215 0.0217056 0.0216886 0.0216705 0.0216513 0.0216311 0.0216099 0.0215878 0.0215647 0.0215407 0.0215159 0.0214903 0.0214639 0.0214367 0.0214089 0.0213805 0.0213514 0.0213218 0.0212918 0.0212612 0.0212303 0.021199 0.0211675 0.0211356 0.0211036 0.0210715 0.0210392 0.0210069 0.0209746 0.0209423 0.0209102 0.0208782 0.0208464 0.0208149 0.0207836 0.0207527 0.0207222 0.0206921 0.0206624 0.0206333 0.0206047 0.0205766 0.0205492 0.0205223 0.0204962 0.0204707 0.0204459 0.0204218 0.0203985 0.0203759 0.0203541 0.0203331 0.0203128 0.0202934 0.0202747 0.0202568 0.0202397 0.0202234 0.0202079 0.0201931 0.0201791 0.0201658 0.0201532 0.0201413 0.0201302 0.0201197 0.0201098 0.0201006 0.020092 0.0200839 0.0200764 0.0200695 0.020063 0.0200571 0.0200516 0.0200465 0.0200419 0.0200376 0.0200337 0.0200301 0.0200269 0.020024 0.0200213 0.0200189 0.0200167 0.0200147 0.020013 0.0200114 0.02001 0.0200087 0.0200076 0.0200066 0.0200058 0.020005 0.0200043 0.0200037 0.0200032 0.0200027 0.0200023 0.020002 0.0200017 0.0200014 0.0200012 0.020001 0.0200009 0.0200007 0.0200006 0.0200005 0.0200004 0.0200003 0.0200003 0.0200002 0.0200002 0.0200002 0.0200001 0.0200001 0.0200001 0.0200001 0.0200001 0.02 0.02 0.02 0.02 0.02 0.02 0.02 0.02 0.02 0.02 0.02 0.02 0.02 0.02 0.02 0.02 0.02 0.02 0.02 0.02 0.02 0.02 0.02 0.02 0.02 0.02 0.02 0.02 0.02 0.02 0.02 0.02 0.02 0.02 0.02 0.02 0.02 0.02 0.0199999 0.0199999 0.0199999 0.0199999 0.0199999 0.0199999 0.0199999 0.0199999 0.0199999 0.0199999 0.0199999 0.0199999 0.0199999 0.0199999 0.0199999 0.0199998 0.0199998 0.0199998 0.0199998 0.0199998 0.0199998 0.0199998 0.0199998 0.0199997 0.0199997 0.0199997 0.0199997 0.0199997 0.0199997 0.0199997 0.0199997 0.0199996 0.0199996 0.0199996 0.0199996 0.0199996 0.0199996 0.0199996 0.0199996 0.0199996 0.0199996 0.0199996 0.0199996 0.0199996 0.0199997 0.0199997 0.0199997 0.0199998 0.0199998 0.0199999 0.0199999 0.02 0.0200001 0.0200002 0.0200003 0.0200004 0.0200005 0.0200007 0.0200008 0.020001 0.0200012 0.0200014 0.0200017 0.0200019 0.0200022 0.0200025 0.0200028 0.0200032 0.0200036 0.020004 0.0200044 0.0200049 0.0200055 0.020006 0.0200066 0.0200073 0.0200079 0.0200087 0.0200094 0.0200103 0.0200111 0.0200121 0.020013 0.0200141 0.0200152 0.0200163 0.0200175 0.0200188 0.0200202 0.0200216 0.0200231 0.0200246 0.0200262 0.0200279 0.0200297 0.0200316 0.0200335 0.0200355 0.0200376 0.0200398 0.020042 0.0200443 0.0200467 0.0200493 0.0200518 0.0200545 0.0200573 0.0200602 0.0200631 0.0200662 0.0200693 0.0200725 0.0200758 0.0200792 0.0200827 0.0200863 0.0200899 0.0200937 0.0200975 0.0201014 0.0201054 0.0201095 0.0201137 0.0201179 0.0201222 0.0201266 0.020131 0.0201355 0.0201401 0.0201448 0.0201495 0.0201542 0.0201591 0.0201639 0.0201688 0.0201738 0.0201787 0.0201838 0.0201888 0.0201939 0.020199 0.0202041 0.0202092 0.0202143 0.0202195 0.0202246 0.0202297 0.0202348 0.0202399 0.020245 0.02025 0.020255 0.02026 0.0202649 0.0202698 0.0202746 0.0202794 0.0202841 0.0202887 0.0202933 0.0202978 0.0203022 0.0203065 0.0203108 0.0203149 0.0203189 0.0203229 0.0203267 0.0203304 0.020334 0.0203375 0.0203409 0.0203441 0.0203472 0.0203502 0.0203531 0.0203558 0.0203584 0.0203608 0.0203632 0.0203653 0.0203673 0.0203692 0.0203709 0.0203725 0.0203739 0.0203754 0.0203766 0.0203777 0.0203787 0.0203797 0.0203805 0.0203813 0.0203819 0.0203824 0.0203829 0.0203832 0.0203835 0.0203836 0.0203837 0.0203837 0.0203837 0.0203836 0.0203834 0.0203832 0.0203829 0.0203826 0.0203823 0.0203819 0.0203815 0.0203811 0.0203807 0.0203803 0.0203799 0.0203795 0.0203791 0.0203787 0.0203784 0.0203781 0.0203778 0.0203776 0.0203774 0.0203773 0.0203772 0.0203771 0.0203772 0.0203772 0.0203774 0.0203776 0.0203779 0.0203782 0.0203787 0.0203791 0.0203797 0.0203803 0.020381 0.0203817 0.0203826 0.0203834 0.0203843 0.0203853 0.0203864 0.0203874 0.0203885 0.0203897 0.0203908 0.020392 0.0203932 0.0203945 0.0203957 0.0203969 0.0203981 0.0203992 0.0204003 0.0204014 0.0204024 0.0204034 0.0204042 0.020405 0.0204057 0.0204062 0.0204066 0.0204069 0.020407 0.020407 0.0204067 0.0204062 0.0204055 0.0204046 0.0204034 0.0204019 0.0204 0.0203979 0.0203954 0.0203925 0.0203892 0.0203854 0.0203812 0.0203765 0.0203712 0.0203654 0.0203589 0.0203519 0.0203441 0.0203356 0.0203264 0.0203164 0.0203056 0.0202939 0.0202814 0.020268 0.0202538 0.0202387 0.0202226 0.0202058 0.020188 0.0201695 0.0201502 0.0201302 0.0201095 0.0200883 0.0200666 0.0200445 0.0200221 0.0199995 0.0199769 0.0199545 0.0199323 0.0199104 0.0198892 0.0198687 0.019849 0.0198304 0.0198129 0.0197968 0.019782 0.0197688 0.0197571 0.0197469 0.0197382 0.019731 0.019725 0.01972 0.0197157 0.0197119 0.019708 0.0197036 0.0196982 0.0196911 0.0196818 0.0196695 0.0196536 0.0196332 0.0196075 0.0195758 0.0195373 0.0194913 0.0194371 0.0193745 0.0193031 0.019223 0.0191342 0.0190372 0.0189323 0.0188201 0.0187008 0.0185741 0.0184343 0.0182602 0.0180526 0.0178281 0.0175738 0.0172774 0.0169219 0.0164873 0.0159598 0.0153083 0.0145837 0.0139932 0.0153038 0.0126812 0 0 0 0 0 0 0 0 0 0 0 0 0 0 0 0 0 0 0 0 0 0 0 0 0 0 0 0 0 0 0 0 0 0 
0.0199292 0.0199756 0.020025 0.0200767 0.0201295 0.0201828 0.0202361 0.0202892 0.020342 0.0203944 0.0204464 0.0204978 0.0205487 0.020599 0.0206487 0.0206977 0.020746 0.0207936 0.0208404 0.0208864 0.0209316 0.0209759 0.0210194 0.021062 0.0211036 0.0211444 0.0211841 0.0212228 0.0212605 0.0212971 0.0213327 0.0213671 0.0214004 0.0214326 0.0214636 0.0214933 0.0215219 0.0215492 0.0215753 0.0216001 0.0216236 0.0216457 0.0216666 0.0216862 0.0217044 0.0217212 0.0217367 0.0217508 0.0217636 0.021775 0.021785 0.0217937 0.0218009 0.0218068 0.0218113 0.0218145 0.0218162 0.0218167 0.0218157 0.0218135 0.0218099 0.0218049 0.0217987 0.0217912 0.0217824 0.0217724 0.0217611 0.0217486 0.0217349 0.02172 0.021704 0.0216869 0.0216686 0.0216494 0.0216291 0.0216077 0.0215855 0.0215623 0.0215382 0.0215133 0.0214876 0.0214611 0.0214339 0.021406 0.0213774 0.0213483 0.0213187 0.0212885 0.0212579 0.0212269 0.0211956 0.021164 0.0211321 0.0211001 0.0210679 0.0210356 0.0210033 0.020971 0.0209387 0.0209066 0.0208746 0.0208428 0.0208113 0.02078 0.0207492 0.0207187 0.0206886 0.020659 0.0206299 0.0206013 0.0205733 0.0205459 0.0205192 0.0204931 0.0204677 0.020443 0.020419 0.0203957 0.0203733 0.0203515 0.0203306 0.0203104 0.0202911 0.0202725 0.0202547 0.0202377 0.0202215 0.020206 0.0201913 0.0201774 0.0201642 0.0201517 0.02014 0.0201289 0.0201184 0.0201087 0.0200995 0.020091 0.020083 0.0200756 0.0200687 0.0200623 0.0200564 0.020051 0.020046 0.0200414 0.0200371 0.0200333 0.0200298 0.0200266 0.0200236 0.020021 0.0200186 0.0200165 0.0200145 0.0200128 0.0200112 0.0200098 0.0200086 0.0200075 0.0200065 0.0200057 0.0200049 0.0200042 0.0200036 0.0200031 0.0200027 0.0200023 0.020002 0.0200017 0.0200014 0.0200012 0.020001 0.0200008 0.0200007 0.0200006 0.0200005 0.0200004 0.0200003 0.0200003 0.0200002 0.0200002 0.0200002 0.0200001 0.0200001 0.0200001 0.0200001 0.0200001 0.02 0.02 0.02 0.02 0.02 0.02 0.02 0.02 0.02 0.02 0.02 0.02 0.02 0.02 0.02 0.02 0.02 0.02 0.02 0.02 0.02 0.02 0.02 0.02 0.02 0.02 0.02 0.02 0.02 0.02 0.02 0.02 0.02 0.02 0.02 0.02 0.02 0.02 0.0199999 0.0199999 0.0199999 0.0199999 0.0199999 0.0199999 0.0199999 0.0199999 0.0199999 0.0199999 0.0199999 0.0199999 0.0199999 0.0199999 0.0199998 0.0199998 0.0199998 0.0199998 0.0199998 0.0199998 0.0199998 0.0199998 0.0199998 0.0199997 0.0199997 0.0199997 0.0199997 0.0199997 0.0199997 0.0199997 0.0199997 0.0199996 0.0199996 0.0199996 0.0199996 0.0199996 0.0199996 0.0199996 0.0199996 0.0199996 0.0199996 0.0199996 0.0199996 0.0199996 0.0199997 0.0199997 0.0199997 0.0199998 0.0199998 0.0199999 0.0199999 0.02 0.0200001 0.0200002 0.0200003 0.0200004 0.0200005 0.0200007 0.0200008 0.020001 0.0200012 0.0200014 0.0200016 0.0200019 0.0200022 0.0200025 0.0200028 0.0200032 0.0200035 0.020004 0.0200044 0.0200049 0.0200054 0.020006 0.0200066 0.0200072 0.0200079 0.0200086 0.0200094 0.0200102 0.0200111 0.020012 0.020013 0.020014 0.0200151 0.0200162 0.0200174 0.0200187 0.02002 0.0200214 0.0200229 0.0200245 0.0200261 0.0200278 0.0200295 0.0200314 0.0200333 0.0200353 0.0200374 0.0200396 0.0200418 0.0200441 0.0200465 0.020049 0.0200516 0.0200542 0.020057 0.0200599 0.0200628 0.0200658 0.0200689 0.0200721 0.0200754 0.0200788 0.0200823 0.0200859 0.0200895 0.0200932 0.020097 0.0201009 0.0201049 0.020109 0.0201131 0.0201173 0.0201216 0.020126 0.0201304 0.0201349 0.0201395 0.0201441 0.0201488 0.0201536 0.0201583 0.0201632 0.0201681 0.020173 0.020178 0.020183 0.020188 0.0201931 0.0201981 0.0202032 0.0202083 0.0202134 0.0202185 0.0202236 0.0202287 0.0202338 0.0202389 0.020244 0.020249 0.020254 0.0202589 0.0202638 0.0202687 0.0202735 0.0202782 0.0202829 0.0202875 0.0202921 0.0202966 0.020301 0.0203053 0.0203095 0.0203136 0.0203176 0.0203215 0.0203253 0.020329 0.0203326 0.0203361 0.0203394 0.0203427 0.0203457 0.0203487 0.0203516 0.0203543 0.0203568 0.0203593 0.0203616 0.0203637 0.0203658 0.0203677 0.0203695 0.0203711 0.0203726 0.0203741 0.0203754 0.0203766 0.0203778 0.0203787 0.0203796 0.0203804 0.0203811 0.0203816 0.0203821 0.0203825 0.0203828 0.020383 0.0203831 0.0203832 0.0203832 0.0203831 0.020383 0.0203828 0.0203826 0.0203823 0.020382 0.0203817 0.0203814 0.020381 0.0203807 0.0203803 0.02038 0.0203796 0.0203793 0.0203789 0.0203787 0.0203784 0.0203782 0.020378 0.0203778 0.0203777 0.0203777 0.0203777 0.0203777 0.0203778 0.020378 0.0203783 0.0203786 0.0203789 0.0203794 0.0203799 0.0203804 0.020381 0.0203817 0.0203825 0.0203833 0.0203842 0.0203851 0.020386 0.0203871 0.0203881 0.0203892 0.0203903 0.0203915 0.0203926 0.0203938 0.020395 0.0203962 0.0203973 0.0203984 0.0203996 0.0204006 0.0204016 0.0204026 0.0204035 0.0204043 0.020405 0.0204056 0.020406 0.0204064 0.0204065 0.0204066 0.0204064 0.020406 0.0204055 0.0204047 0.0204036 0.0204023 0.0204007 0.0203988 0.0203966 0.020394 0.020391 0.0203876 0.0203838 0.0203795 0.0203747 0.0203693 0.0203634 0.0203569 0.0203498 0.0203419 0.0203334 0.0203242 0.0203142 0.0203033 0.0202917 0.0202792 0.0202659 0.0202516 0.0202365 0.0202206 0.0202038 0.0201861 0.0201677 0.0201484 0.0201285 0.0201079 0.0200868 0.0200652 0.0200431 0.0200209 0.0199984 0.0199759 0.0199535 0.0199313 0.0199096 0.0198883 0.0198678 0.0198482 0.0198295 0.019812 0.0197958 0.019781 0.0197677 0.0197559 0.0197456 0.0197369 0.0197295 0.0197235 0.0197184 0.0197142 0.0197104 0.0197066 0.0197023 0.0196971 0.0196904 0.0196814 0.0196696 0.0196542 0.0196344 0.0196094 0.0195785 0.0195407 0.0194955 0.0194422 0.0193804 0.0193097 0.0192302 0.0191418 0.019045 0.0189401 0.0188274 0.0187069 0.0185769 0.0184313 0.0182595 0.0180592 0.0178359 0.017581 0.0172844 0.0169301 0.0165002 0.0159874 0.0153956 0.0146693 0.0140326 0.0135855 0.0123815 0.0105751 0.00882734 0.00702747 0.00531622 0.00445732 0 0 0 0 0 0 0 0 0 0 0 0 0 0 0 0 0 0 0 0 0 0 0 0 0 0 0 0 0 
0.0199292 0.0199782 0.0200284 0.0200801 0.0201326 0.0201856 0.0202387 0.0202917 0.0203444 0.0203968 0.0204487 0.0205002 0.020551 0.0206013 0.020651 0.0206999 0.0207482 0.0207957 0.0208425 0.0208885 0.0209337 0.020978 0.0210214 0.021064 0.0211056 0.0211463 0.021186 0.0212247 0.0212623 0.0212989 0.0213344 0.0213688 0.0214021 0.0214342 0.0214651 0.0214949 0.0215234 0.0215507 0.0215767 0.0216014 0.0216249 0.021647 0.0216678 0.0216873 0.0217055 0.0217223 0.0217377 0.0217518 0.0217645 0.0217759 0.0217858 0.0217944 0.0218016 0.0218075 0.0218119 0.021815 0.0218167 0.0218171 0.0218161 0.0218138 0.0218101 0.0218051 0.0217989 0.0217913 0.0217824 0.0217723 0.021761 0.0217484 0.0217347 0.0217198 0.0217037 0.0216865 0.0216682 0.0216489 0.0216285 0.0216072 0.0215849 0.0215616 0.0215375 0.0215126 0.0214868 0.0214602 0.021433 0.0214051 0.0213765 0.0213473 0.0213176 0.0212875 0.0212568 0.0212258 0.0211945 0.0211628 0.0211309 0.0210988 0.0210666 0.0210343 0.021002 0.0209696 0.0209373 0.0209052 0.0208732 0.0208414 0.0208099 0.0207786 0.0207478 0.0207173 0.0206872 0.0206576 0.0206285 0.0205999 0.020572 0.0205446 0.0205178 0.0204918 0.0204664 0.0204417 0.0204177 0.0203945 0.0203721 0.0203504 0.0203295 0.0203093 0.02029 0.0202715 0.0202537 0.0202368 0.0202206 0.0202052 0.0201905 0.0201766 0.0201634 0.020151 0.0201393 0.0201282 0.0201178 0.0201081 0.020099 0.0200905 0.0200825 0.0200751 0.0200683 0.0200619 0.0200561 0.0200506 0.0200457 0.0200411 0.0200369 0.020033 0.0200295 0.0200264 0.0200235 0.0200208 0.0200185 0.0200163 0.0200144 0.0200127 0.0200111 0.0200098 0.0200085 0.0200074 0.0200065 0.0200056 0.0200049 0.0200042 0.0200036 0.0200031 0.0200027 0.0200023 0.0200019 0.0200016 0.0200014 0.0200012 0.020001 0.0200008 0.0200007 0.0200006 0.0200005 0.0200004 0.0200003 0.0200003 0.0200002 0.0200002 0.0200002 0.0200001 0.0200001 0.0200001 0.0200001 0.0200001 0.02 0.02 0.02 0.02 0.02 0.02 0.02 0.02 0.02 0.02 0.02 0.02 0.02 0.02 0.02 0.02 0.02 0.02 0.02 0.02 0.02 0.02 0.02 0.02 0.02 0.02 0.02 0.02 0.02 0.02 0.02 0.02 0.02 0.02 0.02 0.02 0.02 0.02 0.0199999 0.0199999 0.0199999 0.0199999 0.0199999 0.0199999 0.0199999 0.0199999 0.0199999 0.0199999 0.0199999 0.0199999 0.0199999 0.0199999 0.0199998 0.0199998 0.0199998 0.0199998 0.0199998 0.0199998 0.0199998 0.0199998 0.0199998 0.0199997 0.0199997 0.0199997 0.0199997 0.0199997 0.0199997 0.0199997 0.0199997 0.0199996 0.0199996 0.0199996 0.0199996 0.0199996 0.0199996 0.0199996 0.0199996 0.0199996 0.0199996 0.0199996 0.0199996 0.0199996 0.0199997 0.0199997 0.0199997 0.0199998 0.0199998 0.0199999 0.0199999 0.02 0.0200001 0.0200002 0.0200003 0.0200004 0.0200005 0.0200006 0.0200008 0.020001 0.0200012 0.0200014 0.0200016 0.0200019 0.0200021 0.0200024 0.0200028 0.0200031 0.0200035 0.0200039 0.0200044 0.0200049 0.0200054 0.0200059 0.0200065 0.0200071 0.0200078 0.0200085 0.0200093 0.0200101 0.020011 0.0200119 0.0200129 0.0200139 0.020015 0.0200161 0.0200173 0.0200186 0.0200199 0.0200213 0.0200228 0.0200243 0.0200259 0.0200276 0.0200294 0.0200312 0.0200331 0.0200351 0.0200372 0.0200393 0.0200415 0.0200438 0.0200462 0.0200487 0.0200513 0.0200539 0.0200567 0.0200595 0.0200624 0.0200654 0.0200685 0.0200717 0.020075 0.0200783 0.0200818 0.0200853 0.020089 0.0200927 0.0200965 0.0201003 0.0201043 0.0201083 0.0201124 0.0201166 0.0201209 0.0201252 0.0201296 0.0201341 0.0201386 0.0201432 0.0201479 0.0201526 0.0201574 0.0201622 0.020167 0.0201719 0.0201768 0.0201818 0.0201868 0.0201918 0.0201968 0.0202019 0.020207 0.020212 0.0202171 0.0202222 0.0202272 0.0202323 0.0202373 0.0202423 0.0202473 0.0202522 0.0202571 0.020262 0.0202668 0.0202716 0.0202763 0.0202809 0.0202855 0.02029 0.0202944 0.0202987 0.020303 0.0203072 0.0203112 0.0203152 0.0203191 0.0203228 0.0203265 0.02033 0.0203334 0.0203367 0.0203399 0.020343 0.0203459 0.0203487 0.0203514 0.020354 0.0203564 0.0203587 0.0203609 0.0203629 0.0203649 0.0203667 0.0203684 0.02037 0.0203715 0.0203729 0.0203741 0.0203753 0.0203763 0.0203772 0.020378 0.0203788 0.0203794 0.0203799 0.0203803 0.0203807 0.0203809 0.0203811 0.0203813 0.0203813 0.0203813 0.0203813 0.0203812 0.020381 0.0203808 0.0203806 0.0203804 0.0203801 0.0203799 0.0203796 0.0203793 0.020379 0.0203788 0.0203785 0.0203783 0.0203781 0.0203779 0.0203777 0.0203776 0.0203775 0.0203775 0.0203775 0.0203776 0.0203777 0.0203779 0.0203782 0.0203784 0.0203788 0.0203792 0.0203797 0.0203803 0.0203809 0.0203815 0.0203822 0.020383 0.0203838 0.0203847 0.0203857 0.0203866 0.0203877 0.0203887 0.0203898 0.0203909 0.020392 0.0203932 0.0203943 0.0203954 0.0203966 0.0203977 0.0203988 0.0203998 0.0204008 0.0204018 0.0204026 0.0204034 0.0204042 0.0204048 0.0204053 0.0204056 0.0204059 0.0204059 0.0204058 0.0204056 0.0204051 0.0204044 0.0204035 0.0204023 0.0204009 0.0203991 0.0203971 0.0203947 0.020392 0.0203889 0.0203853 0.0203814 0.020377 0.020372 0.0203666 0.0203606 0.020354 0.0203467 0.0203388 0.0203302 0.0203209 0.0203108 0.0203 0.0202883 0.0202758 0.0202624 0.0202482 0.0202332 0.0202172 0.0202005 0.0201829 0.0201645 0.0201454 0.0201255 0.0201051 0.020084 0.0200625 0.0200407 0.0200185 0.0199962 0.0199738 0.0199516 0.0199295 0.0199079 0.0198868 0.0198663 0.0198468 0.0198282 0.0198107 0.0197945 0.0197797 0.0197664 0.0197546 0.0197443 0.0197355 0.0197281 0.0197219 0.0197168 0.0197125 0.0197087 0.0197049 0.0197008 0.0196957 0.0196891 0.0196805 0.019669 0.019654 0.0196348 0.0196104 0.0195801 0.0195432 0.0194989 0.0194467 0.019386 0.0193166 0.0192384 0.0191516 0.0190564 0.0189531 0.0188418 0.0187219 0.018591 0.0184436 0.0182733 0.0180772 0.0178556 0.0176023 0.0173088 0.0169628 0.0165483 0.0160684 0.0155142 0.0148811 0.0141732 0.0133519 0.0121587 0.0105114 0.00879873 0.00702538 0.00539252 0.0040345 0.00251606 0.00108855 0.00136081 0 0 0 0 0 0 0 0 0 0 0 0 0 0 0 0 0 0 0 0 0 0 0 0 0 -2.60209e-18 
0.0199292 0.0199797 0.0200306 0.0200823 0.0201346 0.0201874 0.0202404 0.0202932 0.0203459 0.0203982 0.0204501 0.0205015 0.0205524 0.0206026 0.0206523 0.0207013 0.0207495 0.0207971 0.0208438 0.0208898 0.020935 0.0209793 0.0210227 0.0210653 0.0211069 0.0211476 0.0211872 0.0212259 0.0212635 0.0213001 0.0213356 0.02137 0.0214033 0.0214354 0.0214663 0.021496 0.0215245 0.0215517 0.0215777 0.0216025 0.0216259 0.021648 0.0216688 0.0216883 0.0217064 0.0217232 0.0217386 0.0217527 0.0217653 0.0217766 0.0217866 0.0217951 0.0218023 0.0218081 0.0218125 0.0218156 0.0218173 0.0218176 0.0218166 0.0218142 0.0218105 0.0218055 0.0217992 0.0217916 0.0217827 0.0217726 0.0217612 0.0217486 0.0217348 0.0217198 0.0217037 0.0216865 0.0216682 0.0216488 0.0216285 0.0216071 0.0215847 0.0215614 0.0215373 0.0215123 0.0214865 0.0214599 0.0214326 0.0214047 0.0213761 0.0213469 0.0213172 0.021287 0.0212563 0.0212253 0.0211939 0.0211622 0.0211303 0.0210982 0.0210659 0.0210336 0.0210013 0.0209689 0.0209366 0.0209044 0.0208724 0.0208406 0.0208091 0.0207778 0.0207469 0.0207164 0.0206864 0.0206568 0.0206277 0.0205991 0.0205711 0.0205437 0.020517 0.0204909 0.0204655 0.0204409 0.0204169 0.0203937 0.0203713 0.0203496 0.0203287 0.0203086 0.0202893 0.0202708 0.020253 0.0202361 0.0202199 0.0202045 0.0201899 0.020176 0.0201629 0.0201505 0.0201388 0.0201277 0.0201174 0.0201077 0.0200986 0.0200901 0.0200822 0.0200748 0.020068 0.0200616 0.0200558 0.0200504 0.0200454 0.0200409 0.0200367 0.0200329 0.0200294 0.0200262 0.0200233 0.0200207 0.0200183 0.0200162 0.0200143 0.0200126 0.0200111 0.0200097 0.0200085 0.0200074 0.0200064 0.0200056 0.0200048 0.0200042 0.0200036 0.0200031 0.0200026 0.0200022 0.0200019 0.0200016 0.0200014 0.0200012 0.020001 0.0200008 0.0200007 0.0200006 0.0200005 0.0200004 0.0200003 0.0200003 0.0200002 0.0200002 0.0200002 0.0200001 0.0200001 0.0200001 0.0200001 0.0200001 0.02 0.02 0.02 0.02 0.02 0.02 0.02 0.02 0.02 0.02 0.02 0.02 0.02 0.02 0.02 0.02 0.02 0.02 0.02 0.02 0.02 0.02 0.02 0.02 0.02 0.02 0.02 0.02 0.02 0.02 0.02 0.02 0.02 0.02 0.02 0.02 0.02 0.02 0.0199999 0.0199999 0.0199999 0.0199999 0.0199999 0.0199999 0.0199999 0.0199999 0.0199999 0.0199999 0.0199999 0.0199999 0.0199999 0.0199999 0.0199998 0.0199998 0.0199998 0.0199998 0.0199998 0.0199998 0.0199998 0.0199998 0.0199998 0.0199997 0.0199997 0.0199997 0.0199997 0.0199997 0.0199997 0.0199997 0.0199997 0.0199996 0.0199996 0.0199996 0.0199996 0.0199996 0.0199996 0.0199996 0.0199996 0.0199996 0.0199996 0.0199996 0.0199996 0.0199996 0.0199997 0.0199997 0.0199997 0.0199998 0.0199998 0.0199998 0.0199999 0.02 0.0200001 0.0200001 0.0200002 0.0200004 0.0200005 0.0200006 0.0200008 0.020001 0.0200012 0.0200014 0.0200016 0.0200018 0.0200021 0.0200024 0.0200027 0.0200031 0.0200035 0.0200039 0.0200043 0.0200048 0.0200053 0.0200059 0.0200065 0.0200071 0.0200078 0.0200085 0.0200092 0.02001 0.0200109 0.0200118 0.0200128 0.0200138 0.0200149 0.020016 0.0200172 0.0200184 0.0200198 0.0200211 0.0200226 0.0200241 0.0200257 0.0200274 0.0200291 0.0200309 0.0200328 0.0200348 0.0200369 0.020039 0.0200412 0.0200435 0.0200458 0.0200483 0.0200508 0.0200535 0.0200562 0.020059 0.0200619 0.0200649 0.0200679 0.0200711 0.0200743 0.0200777 0.0200811 0.0200846 0.0200882 0.0200919 0.0200956 0.0200995 0.0201034 0.0201074 0.0201114 0.0201156 0.0201198 0.0201241 0.0201285 0.0201329 0.0201374 0.0201419 0.0201465 0.0201512 0.0201559 0.0201607 0.0201655 0.0201703 0.0201752 0.0201801 0.020185 0.02019 0.020195 0.0202 0.020205 0.02021 0.020215 0.02022 0.020225 0.02023 0.0202349 0.0202399 0.0202448 0.0202497 0.0202545 0.0202593 0.020264 0.0202687 0.0202733 0.0202779 0.0202824 0.0202868 0.0202912 0.0202955 0.0202996 0.0203037 0.0203077 0.0203116 0.0203154 0.0203191 0.0203227 0.0203262 0.0203296 0.0203328 0.020336 0.020339 0.0203419 0.0203447 0.0203474 0.0203499 0.0203524 0.0203547 0.0203569 0.020359 0.020361 0.0203628 0.0203646 0.0203662 0.0203677 0.0203691 0.0203704 0.0203715 0.0203726 0.0203736 0.0203744 0.0203752 0.0203759 0.0203764 0.0203769 0.0203774 0.0203777 0.020378 0.0203782 0.0203783 0.0203784 0.0203785 0.0203785 0.0203784 0.0203784 0.0203783 0.0203781 0.020378 0.0203778 0.0203777 0.0203775 0.0203773 0.0203772 0.0203771 0.0203769 0.0203768 0.0203768 0.0203767 0.0203767 0.0203768 0.0203769 0.020377 0.0203772 0.0203774 0.0203776 0.020378 0.0203784 0.0203788 0.0203793 0.0203798 0.0203805 0.0203811 0.0203818 0.0203826 0.0203834 0.0203843 0.0203852 0.0203862 0.0203872 0.0203882 0.0203893 0.0203903 0.0203914 0.0203925 0.0203937 0.0203948 0.0203959 0.020397 0.020398 0.0203991 0.0204 0.020401 0.0204018 0.0204026 0.0204033 0.020404 0.0204045 0.0204048 0.0204051 0.0204052 0.0204051 0.0204049 0.0204045 0.0204039 0.0204031 0.020402 0.0204007 0.0203991 0.0203972 0.020395 0.0203924 0.0203896 0.0203863 0.0203826 0.0203785 0.0203739 0.0203689 0.0203633 0.0203571 0.0203504 0.0203431 0.0203351 0.0203264 0.020317 0.0203068 0.0202959 0.0202842 0.0202717 0.0202583 0.0202441 0.0202291 0.0202132 0.0201965 0.020179 0.0201608 0.0201417 0.0201221 0.0201018 0.0200809 0.0200596 0.0200379 0.0200159 0.0199938 0.0199717 0.0199496 0.0199278 0.0199063 0.0198854 0.0198651 0.0198457 0.0198273 0.0198099 0.0197938 0.0197791 0.0197658 0.0197539 0.0197436 0.0197348 0.0197273 0.0197211 0.019716 0.0197116 0.0197078 0.019704 0.0196999 0.0196949 0.0196886 0.0196802 0.0196692 0.0196547 0.019636 0.0196125 0.0195831 0.0195473 0.0195042 0.0194534 0.0193943 0.0193267 0.0192505 0.0191658 0.0190728 0.0189717 0.0188622 0.0187433 0.0186122 0.0184646 0.018296 0.0181036 0.0178853 0.0176357 0.0173483 0.017016 0.016627 0.0161794 0.0156741 0.0150657 0.0142529 0.0133432 0.012081 0.0105321 0.00885219 0.00712512 0.0055148 0.00410526 0.00276049 0.00172194 -0.0007601 0.00171144 0 0 0 0 0 0 0 0 0 0 0 0 0 0 0 0 0 0 0 0 0 0 0 0 1.73472e-18 