# vtk DataFile Version 2.0
iteration 1755
ASCII

DATASET STRUCTURED_POINTS
DIMENSIONS 621 64 1
ORIGIN 0 0 0
SPACING 0.00161031 0.00161031 0.00161031

POINT_DATA 39744
SCALARS P float 1
LOOKUP_TABLE default
0 0 0 0 0 0 0 0 0 0 0 0 0 0 0 0 0 0 0 0 0 0 0 0 0 0 0 0 0 0 0 0 0 0 0 0 0 0 0 0 0 0 0 0 0 0 0 0 0 0 0 0 0 0 0 0 0 0 0 0 0 0 0 0 0 0 0 0 0 0 0 0 0 0 0 0 0 0 0 0 0 0 0 0 0 0 0 0 0 0 0 0 0 0 0 0 0 0 0 0 0 0 0 0 0 0 0 0 0 0 0 0 0 0 0 0 0 0 0 0 0 0 0 0 0 0 0 0 0 0 0 0 0 0 0 0 0 0 0 0 0 0 0 0 0 0 0 0 0 0 0 0 0 0 0 0 0 0 0 0 0 0 0 0 0 0 0 0 0 0 0 0 0 0 0 0 0 0 0 0 0 0 0 0 0 0 0 0 0 0 0 0 0 0 0 0 0 0 0 0 0 0 0 0 0 0 0 0 0 0 0 0 0 0 0 0 0 0 0 0 0 0 0 0 0 0 0 0 0 0 0 0 0 0 0 0 0 0 0 0 0 0 0 0 0 0 0 0 0 0 0 0 0 0 0 0 0 0 0 0 0 0 0 0 0 0 0 0 0 0 0 0 0 0 0 0 0 0 0 0 0 0 0 0 0 0 0 0 0 0 0 0 0 0 0 0 0 0 0 0 0 0 0 0 0 0 0 0 0 0 0 0 0 0 0 0 0 0 0 0 0 0 0 0 0 0 0 0 0 0 0 0 0 0 0 0 0 0 0 0 0 0 0 0 0 0 0 0 0 0 0 0 0 0 0 0 0 0 0 0 0 0 0 0 0 0 0 0 0 0 0 0 0 0 0 0 0 0 0 0 0 0 0 0 0 0 0 0 0 0 0 0 0 0 0 0 0 0 0 0 0 0 0 0 0 0 0 0 0 0 0 0 0 0 0 0 0 0 0 0 0 0 0 0 0 0 0 0 0 0 0 0 0 0 0 0 0 0 0 0 0 0 0 0 0 0 0 0 0 0 0 0 0 0 0 0 0 0 0 0 0 0 0 0 0 0 0 0 0 0 0 0 0 0 0 0 0 0 0 0 0 0 0 0 0 0 0 0 0 0 0 0 0 0 0 0 0 0 0 0 0 0 0 0 0 0 0 0 0 0 0 0 0 0 0 0 0 0 0 0 0 0 0 0 0 0 0 0 0 0 0 0 0 0 0 0 0 0 0 0 0 0 0 0 0 0 0 0 0 0 0 0 0 0 0 0 0 0 0 0 0 0 0 0 0 0 0 0 0 0 0 0 0 0 0 0 0 0 0 0 0 0 0 0 0 0 0 0 0 0 0 0 0 0 0 0 0 0 0 0 0 0 0 0 0 0 0 0 0 0 0 0 0 0 0 0 0 0 0 0 0 
0.02 0.02 0.02 0.02 0.02 0.02 0.02 0.02 0.02 0.02 0.02 0.02 0.02 0.02 0.02 0.02 0.02 0.02 0.02 0.02 0.02 0.02 0.02 0.02 0.02 0.02 0.02 0.02 0.02 0.02 0.02 0.02 0.02 0.02 0.02 0.02 0.02 0.02 0.02 0.02 0.02 0.02 0.02 0.02 0.02 0.02 0.02 0.02 0.02 0.02 0.02 0.02 0.02 0.02 0.02 0.02 0.02 0.02 0.02 0.02 0.02 0.02 0.02 0.02 0.02 0.02 0.02 0.02 0.02 0.02 0.02 0.02 0.02 0.02 0.02 0.02 0.02 0.02 0.02 0.02 0.02 0.02 0.02 0.02 0.02 0.02 0.02 0.02 0.02 0.02 0.02 0.02 0.02 0.02 0.02 0.02 0.02 0.02 0.02 0.02 0.02 0.02 0.02 0.02 0.02 0.02 0.02 0.02 0.02 0.02 0.02 0.02 0.02 0.02 0.02 0.02 0.02 0.02 0.02 0.02 0.02 0.02 0.02 0.02 0.02 0.02 0.02 0.02 0.02 0.02 0.02 0.02 0.02 0.02 0.02 0.02 0.02 0.02 0.02 0.02 0.02 0.0200001 0.0200001 0.0200001 0.0200001 0.0200001 0.0200001 0.0200001 0.0200001 0.0200001 0.0200001 0.0200001 0.02 0.02 0.02 0.02 0.02 0.02 0.02 0.02 0.02 0.0199999 0.0199999 0.0199999 0.0199998 0.0199998 0.0199997 0.0199997 0.0199996 0.0199996 0.0199995 0.0199994 0.0199993 0.0199992 0.0199991 0.0199989 0.0199988 0.0199986 0.0199984 0.0199982 0.019998 0.0199978 0.0199975 0.0199973 0.019997 0.0199966 0.0199963 0.0199959 0.0199955 0.019995 0.0199945 0.019994 0.0199935 0.0199929 0.0199923 0.0199916 0.019991 0.0199902 0.0199895 0.0199886 0.0199878 0.0199869 0.019986 0.019985 0.019984 0.019983 0.0199819 0.0199808 0.0199796 0.0199785 0.0199773 0.019976 0.0199748 0.0199735 0.0199722 0.0199709 0.0199696 0.0199684 0.0199671 0.0199658 0.0199645 0.0199633 0.0199621 0.0199609 0.0199597 0.0199587 0.0199576 0.0199567 0.0199558 0.0199549 0.0199542 0.0199535 0.019953 0.0199526 0.0199522 0.019952 0.019952 0.019952 0.0199522 0.0199526 0.0199531 0.0199535 0.0199541 0.0199549 0.019956 0.0199574 0.0199589 0.0199607 0.0199628 0.019965 0.0199675 0.0199703 0.0199733 0.0199765 0.0199801 0.0199839 0.019988 0.0199924 0.0199972 0.0200022 0.0200075 0.0200132 0.0200192 0.0200256 0.0200322 0.0200393 0.0200467 0.0200545 0.0200626 0.0200711 0.0200799 0.0200892 0.0200988 0.0201088 0.0201192 0.02013 0.0201412 0.0201527 0.0201646 0.0201769 0.0201895 0.0202025 0.0202158 0.0202294 0.0202434 0.0202577 0.0202722 0.020287 0.0203021 0.0203174 0.0203329 0.0203485 0.0203643 0.0203803 0.0203963 0.0204123 0.0204284 0.0204445 0.0204605 0.0204765 0.0204923 0.020508 0.0205235 0.0205388 0.0205537 0.0205683 0.0205827 0.0205966 0.02061 0.0206236 0.020637 0.0206496 0.0206625 0.0206751 0.0206873 0.0206991 0.0207104 0.0207212 0.0207316 0.0207416 0.020751 0.0207599 0.0207683 0.0207762 0.0207835 0.0207903 0.0207966 0.0208022 0.0208073 0.0208118 0.0208157 0.020819 0.0208217 0.0208238 0.0208252 0.0208261 0.0208262 0.0208257 0.0208246 0.0208228 0.0208203 0.0208172 0.0208133 0.0208088 0.0208036 0.0207977 0.020791 0.0207837 0.0207757 0.020767 0.0207576 0.0207475 0.0207367 0.0207252 0.0207131 0.0207003 0.0206869 0.0206729 0.0206583 0.0206431 0.0206274 0.0206111 0.0205944 0.0205772 0.0205595 0.0205415 0.020523 0.0205043 0.0204852 0.0204658 0.0204462 0.0204264 0.0204063 0.0203862 0.0203659 0.0203455 0.0203251 0.0203048 0.0202846 0.0202645 0.0202448 0.0202255 0.0202067 0.0201885 0.0201711 0.0201546 0.0201391 0.0201248 0.0201117 0.0201 0.0200898 0.0200812 0.0200743 0.0200691 0.0200657 0.020064 0.0200641 0.0200658 0.0200689 0.0200733 0.0200787 0.0200846 0.0200905 0.0200959 0.0200998 0.0201013 0.0200992 0.0200918 0.0200773 0.0200533 0.0200169 0.0199643 0.0198889 0.0197832 0.0196419 0.0194826 0.0193534 0.0195251 0.0211873 0.0194516 0 0 0 0 0 0 0 0 0 0 0 0 0 0 0 0 0 0 0 0 0 0 0 0 0 0 0 0 0 0 0 0 0 0 0 0 0 0 0 0 0 0 0 0 0 0 0 0 0 0 0 0 0 0 0 0 0 0 0 0 0 0 0 0 0 0 0 0 0 0 0 0 0 0 0 0 0 0 0 0 0 0 0 0 0 0 0 0 0 0 0 0 0 0 0 0 0 0 0 0 0 0 0 0 0 0 0 0 0 0 0 0 0 0 0 0 0 0 0 0 0 0 0 0 0 0 0 0 0 0 0 0 0 0 0 0 0 0 0 0 0 0 0 0 0 0 0 0 0 0 0 0 0 0 0 0 0 0 0 0 0 0 0 0 0 0 0 0 0 0 0 0 0 0 0 0 0 0 0 0 0 0 0 0 0 0 0 0 0 0 0 0 0 0 0 0 0 0 0 0 0 
0.02 0.02 0.02 0.02 0.02 0.02 0.02 0.02 0.02 0.02 0.02 0.02 0.02 0.02 0.02 0.02 0.02 0.02 0.02 0.02 0.02 0.02 0.02 0.02 0.02 0.02 0.02 0.02 0.02 0.02 0.02 0.02 0.02 0.02 0.02 0.02 0.02 0.02 0.02 0.02 0.02 0.02 0.02 0.02 0.02 0.02 0.02 0.02 0.02 0.02 0.02 0.02 0.02 0.02 0.02 0.02 0.02 0.02 0.02 0.02 0.02 0.02 0.02 0.02 0.02 0.02 0.02 0.02 0.02 0.02 0.02 0.02 0.02 0.02 0.02 0.02 0.02 0.02 0.02 0.02 0.02 0.02 0.02 0.02 0.02 0.02 0.02 0.02 0.02 0.02 0.02 0.02 0.02 0.02 0.02 0.02 0.02 0.02 0.02 0.02 0.02 0.02 0.02 0.02 0.02 0.02 0.02 0.02 0.02 0.02 0.02 0.02 0.02 0.02 0.02 0.02 0.02 0.02 0.02 0.02 0.02 0.02 0.02 0.02 0.02 0.02 0.02 0.02 0.02 0.02 0.02 0.02 0.02 0.02 0.02 0.02 0.02 0.02 0.02 0.02 0.02 0.0200001 0.0200001 0.0200001 0.0200001 0.0200001 0.0200001 0.0200001 0.0200001 0.0200001 0.0200001 0.0200001 0.02 0.02 0.02 0.02 0.02 0.02 0.02 0.02 0.02 0.0199999 0.0199999 0.0199999 0.0199998 0.0199998 0.0199997 0.0199997 0.0199996 0.0199996 0.0199995 0.0199994 0.0199993 0.0199992 0.0199991 0.0199989 0.0199988 0.0199986 0.0199984 0.0199982 0.019998 0.0199978 0.0199975 0.0199973 0.019997 0.0199966 0.0199963 0.0199959 0.0199955 0.019995 0.0199946 0.019994 0.0199935 0.0199929 0.0199923 0.0199917 0.019991 0.0199902 0.0199895 0.0199887 0.0199878 0.0199869 0.019986 0.019985 0.019984 0.019983 0.0199819 0.0199808 0.0199797 0.0199785 0.0199773 0.0199761 0.0199748 0.0199735 0.0199723 0.019971 0.0199697 0.0199684 0.0199671 0.0199658 0.0199646 0.0199633 0.0199621 0.0199609 0.0199598 0.0199587 0.0199576 0.0199567 0.0199558 0.0199549 0.0199542 0.0199535 0.019953 0.0199526 0.0199522 0.019952 0.0199519 0.019952 0.0199522 0.0199526 0.019953 0.0199536 0.0199542 0.0199551 0.0199562 0.0199576 0.0199591 0.0199609 0.0199629 0.0199652 0.0199677 0.0199705 0.0199735 0.0199768 0.0199803 0.0199842 0.0199883 0.0199927 0.0199975 0.0200025 0.0200079 0.0200135 0.0200195 0.0200259 0.0200326 0.0200396 0.020047 0.0200548 0.0200629 0.0200714 0.0200803 0.0200896 0.0200992 0.0201092 0.0201196 0.0201303 0.0201414 0.0201529 0.0201648 0.020177 0.0201896 0.0202025 0.0202158 0.0202294 0.0202432 0.0202574 0.0202719 0.0202866 0.0203015 0.0203167 0.020332 0.0203475 0.0203631 0.0203789 0.0203947 0.0204106 0.0204264 0.0204423 0.020458 0.0204737 0.0204893 0.0205047 0.0205199 0.020535 0.0205498 0.0205644 0.0205788 0.020593 0.0206065 0.0206203 0.0206339 0.0206472 0.0206601 0.0206727 0.0206848 0.0206965 0.0207078 0.0207186 0.020729 0.0207389 0.0207483 0.0207572 0.0207656 0.0207734 0.0207808 0.0207875 0.0207937 0.0207994 0.0208045 0.020809 0.0208129 0.0208162 0.0208188 0.0208209 0.0208224 0.0208232 0.0208233 0.0208229 0.0208217 0.0208199 0.0208174 0.0208143 0.0208105 0.0208059 0.0208007 0.0207948 0.0207882 0.0207809 0.0207729 0.0207642 0.0207548 0.0207447 0.0207339 0.0207225 0.0207104 0.0206976 0.0206842 0.0206702 0.0206557 0.0206405 0.0206248 0.0206085 0.0205918 0.0205746 0.020557 0.020539 0.0205206 0.0205018 0.0204828 0.0204634 0.0204438 0.020424 0.020404 0.0203838 0.0203635 0.0203432 0.0203228 0.0203024 0.0202822 0.0202621 0.0202423 0.0202229 0.020204 0.0201857 0.0201681 0.0201513 0.0201356 0.0201209 0.0201074 0.0200953 0.0200847 0.0200756 0.0200681 0.0200622 0.0200581 0.0200557 0.020055 0.0200559 0.0200582 0.0200618 0.0200663 0.0200713 0.0200765 0.020081 0.0200843 0.0200851 0.0200824 0.0200746 0.0200597 0.0200356 0.0199991 0.0199467 0.0198718 0.0197666 0.0196296 0.0194797 0.0193904 0.0195078 0.019817 0.0193587 0.0186153 0.0181003 0.0175452 0.016935 0.0162688 0.0155654 0.0148143 0.0139724 0.0129687 0.01176 0.0109248 0.0119624 0 0 0 0 0 0 0 0 0 0 0 0 0 0 0 0 0 0 0 0 0 0 0 0 0 0 0 0 0 0 0 0 0 0 0 0 0 0 0 0 0 0 0 0 0 0 0 0 0 0 0 0 0 0 0 0 0 0 0 0 0 0 0 0 0 0 0 0 0 0 0 0 0 0 0 0 0 0 0 0 0 0 0 0 0 0 0 0 0 0 0 0 0 0 0 0 0 0 0 0 0 0 0 0 0 0 0 0 0 0 0 0 0 0 0 0 0 0 0 0 0 0 0 0 0 0 0 0 0 0 0 0 0 0 0 0 0 0 0 0 0 0 0 0 0 0 0 0 0 0 0 0 0 0 0 0 0 0 0 0 0 0 0 0 0 0 0 0 0 0 0 0 0 0 0 0 0 0 0 0 0 0 0 0 0 0 0 0 0 
0.02 0.02 0.02 0.02 0.02 0.02 0.02 0.02 0.02 0.02 0.02 0.02 0.02 0.02 0.02 0.02 0.02 0.02 0.02 0.02 0.02 0.02 0.02 0.02 0.02 0.02 0.02 0.02 0.02 0.02 0.02 0.02 0.02 0.02 0.02 0.02 0.02 0.02 0.02 0.02 0.02 0.02 0.02 0.02 0.02 0.02 0.02 0.02 0.02 0.02 0.02 0.02 0.02 0.02 0.02 0.02 0.02 0.02 0.02 0.02 0.02 0.02 0.02 0.02 0.02 0.02 0.02 0.02 0.02 0.02 0.02 0.02 0.02 0.02 0.02 0.02 0.02 0.02 0.02 0.02 0.02 0.02 0.02 0.02 0.02 0.02 0.02 0.02 0.02 0.02 0.02 0.02 0.02 0.02 0.02 0.02 0.02 0.02 0.02 0.02 0.02 0.02 0.02 0.02 0.02 0.02 0.02 0.02 0.02 0.02 0.02 0.02 0.02 0.02 0.02 0.02 0.02 0.02 0.02 0.02 0.02 0.02 0.02 0.02 0.02 0.02 0.02 0.02 0.02 0.02 0.02 0.02 0.02 0.02 0.02 0.02 0.02 0.02 0.02 0.02 0.02 0.02 0.0200001 0.0200001 0.0200001 0.0200001 0.0200001 0.0200001 0.0200001 0.0200001 0.0200001 0.02 0.02 0.02 0.02 0.02 0.02 0.02 0.02 0.02 0.02 0.0199999 0.0199999 0.0199999 0.0199998 0.0199998 0.0199997 0.0199997 0.0199996 0.0199996 0.0199995 0.0199994 0.0199993 0.0199992 0.0199991 0.0199989 0.0199988 0.0199986 0.0199984 0.0199982 0.019998 0.0199978 0.0199975 0.0199972 0.0199969 0.0199966 0.0199963 0.0199959 0.0199955 0.019995 0.0199945 0.019994 0.0199935 0.0199929 0.0199923 0.0199916 0.019991 0.0199902 0.0199895 0.0199887 0.0199878 0.0199869 0.019986 0.019985 0.019984 0.019983 0.0199819 0.0199808 0.0199797 0.0199785 0.0199773 0.0199761 0.0199748 0.0199735 0.0199723 0.019971 0.0199697 0.0199684 0.0199671 0.0199658 0.0199646 0.0199633 0.0199621 0.0199609 0.0199598 0.0199587 0.0199577 0.0199567 0.0199558 0.019955 0.0199542 0.0199536 0.019953 0.0199526 0.0199522 0.019952 0.019952 0.019952 0.0199523 0.0199526 0.0199531 0.0199537 0.0199544 0.0199553 0.0199565 0.0199578 0.0199594 0.0199612 0.0199632 0.0199655 0.019968 0.0199708 0.0199739 0.0199772 0.0199807 0.0199846 0.0199888 0.0199932 0.019998 0.0200031 0.0200084 0.0200142 0.0200202 0.0200266 0.0200333 0.0200404 0.0200478 0.0200556 0.0200638 0.0200723 0.0200812 0.0200904 0.0201001 0.0201101 0.0201205 0.0201312 0.0201423 0.0201538 0.0201656 0.0201778 0.0201904 0.0202032 0.0202164 0.0202299 0.0202437 0.0202578 0.0202721 0.0202867 0.0203015 0.0203165 0.0203316 0.0203469 0.0203623 0.0203778 0.0203934 0.0204089 0.0204245 0.0204401 0.0204556 0.0204711 0.0204864 0.0205016 0.0205167 0.0205317 0.0205465 0.020561 0.0205754 0.0205897 0.0206038 0.0206176 0.0206311 0.0206443 0.0206571 0.0206696 0.0206816 0.0206933 0.0207044 0.0207152 0.0207255 0.0207353 0.0207446 0.0207534 0.0207617 0.0207694 0.0207767 0.0207834 0.0207895 0.0207951 0.0208 0.0208044 0.0208083 0.0208115 0.0208141 0.020816 0.0208174 0.0208181 0.0208182 0.0208176 0.0208164 0.0208145 0.020812 0.0208087 0.0208048 0.0208002 0.0207949 0.0207889 0.0207822 0.0207748 0.0207668 0.020758 0.0207485 0.0207384 0.0207276 0.0207161 0.0207039 0.0206912 0.0206777 0.0206637 0.0206491 0.0206339 0.0206182 0.020602 0.0205853 0.0205681 0.0205505 0.0205325 0.0205141 0.0204954 0.0204764 0.0204571 0.0204376 0.0204178 0.0203979 0.0203778 0.0203575 0.0203372 0.0203169 0.0202966 0.0202764 0.0202563 0.0202365 0.0202171 0.0201981 0.0201797 0.0201619 0.020145 0.020129 0.020114 0.0201002 0.0200877 0.0200765 0.0200669 0.0200587 0.0200522 0.0200474 0.0200442 0.0200426 0.0200426 0.020044 0.0200466 0.0200502 0.0200543 0.0200585 0.0200622 0.0200646 0.0200647 0.0200612 0.0200528 0.0200375 0.0200129 0.0199762 0.0199238 0.0198501 0.0197468 0.0196163 0.0194851 0.0194302 0.019471 0.0195253 0.0191527 0.0186081 0.0180911 0.0175249 0.016932 0.0162636 0.01555 0.0147672 0.0138925 0.0128944 0.0118215 0.0108929 0.0103148 0.00929174 0.00818606 0.00676731 0.00670685 0 0 0 0 0 0 0 0 0 0 0 0 0 0 0 0 0 0 0 0 0 0 0 0 0 0 0 0 0 0 0 0 0 0 0 0 0 0 0 0 0 0 0 0 0 0 0 0 0 0 0 0 0 0 0 0 0 0 0 0 0 0 0 0 0 0 0 0 0 0 0 0 0 0 0 0 0 0 0 0 0 0 0 0 0 0 0 0 0 0 0 0 0 0 0 0 0 0 0 0 0 0 0 0 0 0 0 0 0 0 0 0 0 0 0 0 0 0 0 0 0 0 0 0 0 0 0 0 0 0 0 0 0 0 0 0 0 0 0 0 0 0 0 0 0 0 0 0 0 0 0 0 0 0 0 0 0 0 0 0 0 0 0 0 0 0 0 0 0 0 0 0 0 0 0 0 0 0 0 0 0 0 0 0 4.33681e-19 
0.02 0.02 0.02 0.02 0.02 0.02 0.02 0.02 0.02 0.02 0.02 0.02 0.02 0.02 0.02 0.02 0.02 0.02 0.02 0.02 0.02 0.02 0.02 0.02 0.02 0.02 0.02 0.02 0.02 0.02 0.02 0.02 0.02 0.02 0.02 0.02 0.02 0.02 0.02 0.02 0.02 0.02 0.02 0.02 0.02 0.02 0.02 0.02 0.02 0.02 0.02 0.02 0.02 0.02 0.02 0.02 0.02 0.02 0.02 0.02 0.02 0.02 0.02 0.02 0.02 0.02 0.02 0.02 0.02 0.02 0.02 0.02 0.02 0.02 0.02 0.02 0.02 0.02 0.02 0.02 0.02 0.02 0.02 0.02 0.02 0.02 0.02 0.02 0.02 0.02 0.02 0.02 0.02 0.02 0.02 0.02 0.02 0.02 0.02 0.02 0.02 0.02 0.02 0.02 0.02 0.02 0.02 0.02 0.02 0.02 0.02 0.02 0.02 0.02 0.02 0.02 0.02 0.02 0.02 0.02 0.02 0.02 0.02 0.02 0.02 0.02 0.02 0.02 0.02 0.02 0.02 0.02 0.02 0.02 0.02 0.02 0.02 0.02 0.02 0.02 0.02 0.02 0.02 0.0200001 0.0200001 0.0200001 0.0200001 0.0200001 0.0200001 0.0200001 0.02 0.02 0.02 0.02 0.02 0.02 0.02 0.02 0.02 0.02 0.0199999 0.0199999 0.0199999 0.0199999 0.0199998 0.0199998 0.0199997 0.0199997 0.0199996 0.0199995 0.0199995 0.0199994 0.0199993 0.0199992 0.019999 0.0199989 0.0199988 0.0199986 0.0199984 0.0199982 0.019998 0.0199978 0.0199975 0.0199972 0.0199969 0.0199966 0.0199962 0.0199959 0.0199954 0.019995 0.0199945 0.019994 0.0199935 0.0199929 0.0199923 0.0199916 0.0199909 0.0199902 0.0199894 0.0199886 0.0199878 0.0199869 0.019986 0.019985 0.019984 0.019983 0.0199819 0.0199808 0.0199797 0.0199785 0.0199773 0.0199761 0.0199748 0.0199735 0.0199723 0.019971 0.0199697 0.0199684 0.0199671 0.0199658 0.0199646 0.0199633 0.0199621 0.019961 0.0199598 0.0199587 0.0199577 0.0199567 0.0199558 0.019955 0.0199543 0.0199537 0.0199531 0.0199527 0.0199524 0.0199522 0.0199521 0.0199522 0.0199524 0.0199528 0.0199533 0.019954 0.0199548 0.0199557 0.0199569 0.0199583 0.0199599 0.0199617 0.0199637 0.019966 0.0199686 0.0199714 0.0199745 0.0199778 0.0199814 0.0199854 0.0199896 0.019994 0.0199988 0.020004 0.0200094 0.0200151 0.0200212 0.0200276 0.0200344 0.0200415 0.020049 0.0200568 0.020065 0.0200735 0.0200824 0.0200917 0.0201014 0.0201114 0.0201217 0.0201325 0.0201435 0.020155 0.0201668 0.0201789 0.0201914 0.0202041 0.0202172 0.0202306 0.0202442 0.0202581 0.0202723 0.0202866 0.0203012 0.0203159 0.0203308 0.0203459 0.020361 0.0203762 0.0203915 0.0204068 0.0204221 0.0204374 0.0204527 0.0204679 0.0204831 0.0204983 0.0205132 0.0205281 0.0205429 0.0205575 0.020572 0.0205862 0.0206002 0.0206139 0.0206272 0.0206402 0.0206529 0.0206652 0.0206771 0.0206885 0.0206996 0.0207102 0.0207203 0.02073 0.0207392 0.0207478 0.020756 0.0207636 0.0207707 0.0207772 0.0207832 0.0207887 0.0207935 0.0207978 0.0208015 0.0208045 0.020807 0.0208088 0.0208101 0.0208106 0.0208106 0.0208099 0.0208085 0.0208065 0.0208038 0.0208004 0.0207964 0.0207917 0.0207863 0.0207801 0.0207733 0.0207659 0.0207577 0.0207488 0.0207392 0.020729 0.0207181 0.0207066 0.0206944 0.0206815 0.020668 0.020654 0.0206393 0.0206242 0.0206084 0.0205922 0.0205755 0.0205583 0.0205408 0.0205228 0.0205045 0.0204859 0.0204669 0.0204477 0.0204283 0.0204086 0.0203888 0.0203688 0.0203487 0.0203285 0.0203083 0.020288 0.0202679 0.0202479 0.0202281 0.0202087 0.0201897 0.0201712 0.0201533 0.0201361 0.0201198 0.0201045 0.0200903 0.0200772 0.0200654 0.020055 0.0200461 0.0200387 0.0200328 0.0200285 0.0200258 0.0200246 0.0200247 0.020026 0.0200282 0.020031 0.0200338 0.0200362 0.0200372 0.0200361 0.0200315 0.020022 0.0200057 0.0199803 0.019943 0.0198905 0.0198186 0.0197205 0.0195975 0.0194815 0.0194121 0.0193883 0.0193057 0.0189985 0.0185477 0.0180622 0.0175117 0.0169307 0.0162709 0.0155549 0.0147599 0.0138863 0.0129226 0.0119332 0.0110329 0.0101529 0.0090879 0.0079728 0.00648476 0.00555958 0.00397411 0.00312614 0 0 0 0 0 0 0 0 0 0 0 0 0 0 0 0 0 0 0 0 0 0 0 0 0 0 0 0 0 0 0 0 0 0 0 0 0 0 0 0 0 0 0 0 0 0 0 0 0 0 0 0 0 0 0 0 0 0 0 0 0 0 0 0 0 0 0 0 0 0 0 0 0 0 0 0 0 0 0 0 0 0 0 0 0 0 0 0 0 0 0 0 0 0 0 0 0 0 0 0 0 0 0 0 0 0 0 0 0 0 0 0 0 0 0 0 0 0 0 0 0 0 0 0 0 0 0 0 0 0 0 0 0 0 0 0 0 0 0 0 0 0 0 0 0 0 0 0 0 0 0 0 0 0 0 0 0 0 0 0 0 0 0 0 0 0 0 0 0 0 0 0 0 0 0 0 0 0 0 0 0 0 2.1684e-19 
0.02 0.02 0.02 0.02 0.02 0.02 0.02 0.02 0.02 0.02 0.02 0.02 0.02 0.02 0.02 0.02 0.02 0.02 0.02 0.02 0.02 0.02 0.02 0.02 0.02 0.02 0.02 0.02 0.02 0.02 0.02 0.02 0.02 0.02 0.02 0.02 0.02 0.02 0.02 0.02 0.02 0.02 0.02 0.02 0.02 0.02 0.02 0.02 0.02 0.02 0.02 0.02 0.02 0.02 0.02 0.02 0.02 0.02 0.02 0.02 0.02 0.02 0.02 0.02 0.02 0.02 0.02 0.02 0.02 0.02 0.02 0.02 0.02 0.02 0.02 0.02 0.02 0.02 0.02 0.02 0.02 0.02 0.02 0.02 0.02 0.02 0.02 0.02 0.02 0.02 0.02 0.02 0.02 0.02 0.02 0.02 0.02 0.02 0.02 0.02 0.02 0.02 0.02 0.02 0.02 0.02 0.02 0.02 0.02 0.02 0.02 0.02 0.02 0.02 0.02 0.02 0.02 0.02 0.02 0.02 0.02 0.02 0.02 0.02 0.02 0.02 0.02 0.02 0.02 0.02 0.02 0.02 0.02 0.02 0.02 0.02 0.02 0.02 0.02 0.02 0.02 0.02 0.02 0.02 0.02 0.02 0.02 0.02 0.02 0.02 0.02 0.02 0.02 0.02 0.02 0.02 0.02 0.02 0.02 0.02 0.0199999 0.0199999 0.0199999 0.0199998 0.0199998 0.0199998 0.0199997 0.0199997 0.0199996 0.0199995 0.0199994 0.0199994 0.0199993 0.0199991 0.019999 0.0199989 0.0199987 0.0199986 0.0199984 0.0199982 0.019998 0.0199977 0.0199975 0.0199972 0.0199969 0.0199966 0.0199962 0.0199958 0.0199954 0.019995 0.0199945 0.019994 0.0199934 0.0199929 0.0199923 0.0199916 0.0199909 0.0199902 0.0199894 0.0199886 0.0199878 0.0199869 0.019986 0.019985 0.019984 0.019983 0.0199819 0.0199808 0.0199797 0.0199785 0.0199773 0.0199761 0.0199748 0.0199736 0.0199723 0.019971 0.0199697 0.0199685 0.0199672 0.0199659 0.0199647 0.0199634 0.0199622 0.0199611 0.0199599 0.0199589 0.0199578 0.0199569 0.019956 0.0199552 0.0199545 0.0199538 0.0199533 0.0199529 0.0199526 0.0199524 0.0199524 0.0199525 0.0199528 0.0199532 0.0199537 0.0199544 0.0199553 0.0199563 0.0199575 0.0199589 0.0199605 0.0199624 0.0199645 0.0199668 0.0199694 0.0199723 0.0199754 0.0199788 0.0199825 0.0199864 0.0199906 0.0199952 0.02 0.0200052 0.0200107 0.0200165 0.0200226 0.0200291 0.0200359 0.020043 0.0200505 0.0200584 0.0200666 0.0200751 0.020084 0.0200933 0.0201029 0.0201129 0.0201232 0.0201339 0.0201449 0.0201563 0.020168 0.02018 0.0201924 0.020205 0.0202179 0.0202311 0.0202445 0.0202582 0.0202721 0.0202862 0.0203005 0.020315 0.0203296 0.0203444 0.0203592 0.0203741 0.0203892 0.0204042 0.0204193 0.0204344 0.0204495 0.0204646 0.0204796 0.0204946 0.0205095 0.0205243 0.0205389 0.0205534 0.0205676 0.0205816 0.0205953 0.0206088 0.0206219 0.0206347 0.0206471 0.0206592 0.0206709 0.0206822 0.020693 0.0207034 0.0207134 0.0207228 0.0207318 0.0207403 0.0207483 0.0207557 0.0207626 0.020769 0.0207748 0.02078 0.0207847 0.0207888 0.0207923 0.0207952 0.0207975 0.0207992 0.0208002 0.0208006 0.0208004 0.0207995 0.020798 0.0207958 0.0207929 0.0207894 0.0207852 0.0207803 0.0207748 0.0207685 0.0207616 0.0207539 0.0207456 0.0207367 0.020727 0.0207167 0.0207057 0.020694 0.0206817 0.0206688 0.0206553 0.0206412 0.0206266 0.0206114 0.0205956 0.0205794 0.0205627 0.0205456 0.0205281 0.0205102 0.020492 0.0204735 0.0204546 0.0204356 0.0204162 0.0203967 0.020377 0.0203572 0.0203372 0.0203172 0.0202971 0.020277 0.020257 0.0202371 0.0202174 0.020198 0.0201789 0.0201603 0.0201423 0.0201249 0.0201083 0.0200926 0.0200778 0.0200641 0.0200515 0.0200402 0.0200303 0.0200217 0.0200145 0.0200088 0.0200045 0.0200017 0.0200001 0.0199996 0.0199999 0.0200008 0.0200017 0.0200022 0.0200014 0.0199984 0.019992 0.0199808 0.019963 0.0199363 0.019898 0.0198454 0.0197757 0.0196857 0.0195744 0.0194611 0.0193698 0.0192866 0.0191392 0.0188592 0.0184673 0.0180128 0.0174929 0.0169203 0.0162741 0.0155598 0.0147666 0.0139066 0.0129944 0.012046 0.0111248 0.0101355 0.00906202 0.00790147 0.00665335 0.00520351 0.00360505 0.0019939 5.50909e-05 -0.00173942 0 0 0 0 0 0 0 0 0 0 0 0 0 0 0 0 0 0 0 0 0 0 0 0 0 0 0 0 0 0 0 0 0 0 0 0 0 0 0 0 0 0 0 0 0 0 0 0 0 0 0 0 0 0 0 0 0 0 0 0 0 0 0 0 0 0 0 0 0 0 0 0 0 0 0 0 0 0 0 0 0 0 0 0 0 0 0 0 0 0 0 0 0 0 0 0 0 0 0 0 0 0 0 0 0 0 0 0 0 0 0 0 0 0 0 0 0 0 0 0 0 0 0 0 0 0 0 0 0 0 0 0 0 0 0 0 0 0 0 0 0 0 0 0 0 0 0 0 0 0 0 0 0 0 0 0 0 0 0 0 0 0 0 0 0 0 0 0 0 0 0 0 0 0 0 0 0 0 0 -0.0044554 -4.33681e-19 
0.02 0.02 0.02 0.02 0.02 0.02 0.02 0.02 0.02 0.02 0.02 0.02 0.02 0.02 0.02 0.02 0.02 0.02 0.02 0.02 0.02 0.02 0.02 0.02 0.02 0.02 0.02 0.02 0.02 0.02 0.02 0.02 0.02 0.02 0.02 0.02 0.02 0.02 0.02 0.02 0.02 0.02 0.02 0.02 0.02 0.02 0.02 0.02 0.02 0.02 0.02 0.02 0.02 0.02 0.02 0.02 0.02 0.02 0.02 0.02 0.02 0.02 0.02 0.02 0.02 0.02 0.02 0.02 0.02 0.02 0.02 0.02 0.02 0.02 0.02 0.02 0.02 0.02 0.02 0.02 0.02 0.02 0.02 0.02 0.02 0.02 0.02 0.02 0.02 0.02 0.02 0.02 0.02 0.02 0.02 0.02 0.02 0.02 0.02 0.02 0.02 0.02 0.02 0.02 0.02 0.02 0.02 0.02 0.02 0.02 0.02 0.02 0.02 0.02 0.02 0.02 0.02 0.02 0.02 0.02 0.02 0.02 0.02 0.02 0.02 0.02 0.02 0.02 0.02 0.02 0.02 0.02 0.02 0.02 0.02 0.02 0.02 0.02 0.02 0.02 0.02 0.02 0.02 0.02 0.02 0.02 0.02 0.02 0.02 0.02 0.02 0.02 0.02 0.02 0.02 0.02 0.02 0.02 0.02 0.0199999 0.0199999 0.0199999 0.0199999 0.0199998 0.0199998 0.0199997 0.0199997 0.0199996 0.0199996 0.0199995 0.0199994 0.0199993 0.0199992 0.0199991 0.019999 0.0199989 0.0199987 0.0199985 0.0199984 0.0199982 0.0199979 0.0199977 0.0199974 0.0199972 0.0199969 0.0199965 0.0199962 0.0199958 0.0199954 0.0199949 0.0199945 0.0199939 0.0199934 0.0199928 0.0199922 0.0199916 0.0199909 0.0199902 0.0199894 0.0199886 0.0199878 0.0199869 0.0199859 0.019985 0.019984 0.019983 0.0199819 0.0199808 0.0199797 0.0199785 0.0199773 0.0199761 0.0199749 0.0199736 0.0199724 0.0199711 0.0199698 0.0199685 0.0199673 0.019966 0.0199648 0.0199636 0.0199624 0.0199612 0.0199601 0.019959 0.019958 0.0199571 0.0199562 0.0199554 0.0199547 0.0199541 0.0199536 0.0199532 0.019953 0.0199528 0.0199528 0.0199529 0.0199532 0.0199537 0.0199543 0.019955 0.0199559 0.019957 0.0199583 0.0199598 0.0199614 0.0199633 0.0199655 0.0199679 0.0199705 0.0199734 0.0199766 0.01998 0.0199837 0.0199877 0.019992 0.0199966 0.0200015 0.0200067 0.0200123 0.0200181 0.0200243 0.0200308 0.0200376 0.0200448 0.0200523 0.0200602 0.0200684 0.0200769 0.0200858 0.0200951 0.0201047 0.0201146 0.0201249 0.0201355 0.0201464 0.0201577 0.0201692 0.0201811 0.0201933 0.0202057 0.0202184 0.0202314 0.0202446 0.020258 0.0202717 0.0202855 0.0202996 0.0203138 0.0203281 0.0203426 0.0203572 0.0203719 0.0203866 0.0204014 0.0204163 0.0204312 0.0204461 0.020461 0.0204758 0.0204905 0.0205052 0.0205197 0.020534 0.0205482 0.0205621 0.0205758 0.0205892 0.0206024 0.0206152 0.0206277 0.0206399 0.0206517 0.0206631 0.0206741 0.0206847 0.0206948 0.0207045 0.0207137 0.0207225 0.0207307 0.0207385 0.0207457 0.0207523 0.0207585 0.0207641 0.0207691 0.0207735 0.0207774 0.0207807 0.0207834 0.0207854 0.0207869 0.0207877 0.0207879 0.0207875 0.0207864 0.0207847 0.0207823 0.0207793 0.0207756 0.0207712 0.0207661 0.0207604 0.020754 0.0207469 0.0207391 0.0207307 0.0207215 0.0207118 0.0207013 0.0206902 0.0206785 0.0206661 0.0206532 0.0206396 0.0206255 0.0206108 0.0205956 0.0205799 0.0205637 0.0205471 0.0205301 0.0205126 0.0204949 0.0204767 0.0204583 0.0204397 0.0204207 0.0204016 0.0203823 0.0203628 0.0203431 0.0203234 0.0203035 0.0202836 0.0202637 0.0202439 0.0202241 0.0202045 0.0201851 0.0201661 0.0201474 0.0201292 0.0201115 0.0200946 0.0200783 0.0200629 0.0200484 0.020035 0.0200226 0.0200114 0.0200014 0.0199926 0.0199851 0.019979 0.019974 0.0199702 0.0199674 0.0199654 0.0199638 0.0199622 0.0199601 0.0199568 0.0199513 0.0199425 0.0199291 0.0199092 0.0198806 0.019841 0.0197882 0.0197211 0.0196394 0.0195423 0.0194332 0.0193227 0.0191917 0.0190141 0.0187447 0.0183875 0.0179596 0.0174639 0.0169027 0.0162694 0.0155616 0.014779 0.0139381 0.0130597 0.0121415 0.0111677 0.0101641 0.00905601 0.00786536 0.00658863 0.00515592 0.0035825 0.00183059 -0.000193214 -0.00251386 -0.00571071 -0.00859857 0 0 0 0 0 0 0 0 0 0 0 0 0 0 0 0 0 0 0 0 0 0 0 0 0 0 0 0 0 0 0 0 0 0 0 0 0 0 0 0 0 0 0 0 0 0 0 0 0 0 0 0 0 0 0 0 0 0 0 0 0 0 0 0 0 0 0 0 0 0 0 0 0 0 0 0 0 0 0 0 0 0 0 0 0 0 0 0 0 0 0 0 0 0 0 0 0 0 0 0 0 0 0 0 0 0 0 0 0 0 0 0 0 0 0 0 0 0 0 0 0 0 0 0 0 0 0 0 0 0 0 0 0 0 0 0 0 0 0 0 0 0 0 0 0 0 0 0 0 0 0 0 0 0 0 0 0 0 0 0 0 0 0 0 0 0 0 0 0 0 0 0 0 0 0 0 -0.0163851 -0.00822102 -1.95156e-18 
0.02 0.02 0.02 0.02 0.02 0.02 0.02 0.02 0.02 0.02 0.02 0.02 0.02 0.02 0.02 0.02 0.02 0.02 0.02 0.02 0.02 0.02 0.02 0.02 0.02 0.02 0.02 0.02 0.02 0.02 0.02 0.02 0.02 0.02 0.02 0.02 0.02 0.02 0.02 0.02 0.02 0.02 0.02 0.02 0.02 0.02 0.02 0.02 0.02 0.02 0.02 0.02 0.02 0.02 0.02 0.02 0.02 0.02 0.02 0.02 0.02 0.02 0.02 0.02 0.02 0.02 0.02 0.02 0.02 0.02 0.02 0.02 0.02 0.02 0.02 0.02 0.02 0.02 0.02 0.02 0.02 0.02 0.02 0.02 0.02 0.02 0.02 0.02 0.02 0.02 0.02 0.02 0.02 0.02 0.02 0.02 0.02 0.02 0.02 0.02 0.02 0.02 0.02 0.02 0.02 0.02 0.02 0.02 0.02 0.02 0.02 0.02 0.02 0.02 0.02 0.02 0.02 0.02 0.02 0.02 0.02 0.02 0.02 0.02 0.02 0.02 0.02 0.02 0.02 0.02 0.02 0.02 0.02 0.02 0.02 0.02 0.02 0.02 0.02 0.02 0.02 0.02 0.02 0.02 0.02 0.02 0.02 0.02 0.02 0.02 0.02 0.02 0.02 0.02 0.02 0.02 0.02 0.02 0.0199999 0.0199999 0.0199999 0.0199999 0.0199998 0.0199998 0.0199998 0.0199997 0.0199997 0.0199996 0.0199995 0.0199995 0.0199994 0.0199993 0.0199992 0.0199991 0.019999 0.0199988 0.0199987 0.0199985 0.0199983 0.0199981 0.0199979 0.0199977 0.0199974 0.0199971 0.0199968 0.0199965 0.0199961 0.0199957 0.0199953 0.0199949 0.0199944 0.0199939 0.0199934 0.0199928 0.0199922 0.0199915 0.0199909 0.0199901 0.0199894 0.0199886 0.0199877 0.0199869 0.0199859 0.019985 0.019984 0.019983 0.0199819 0.0199808 0.0199797 0.0199785 0.0199774 0.0199762 0.0199749 0.0199737 0.0199725 0.0199712 0.0199699 0.0199687 0.0199674 0.0199662 0.0199649 0.0199637 0.0199626 0.0199614 0.0199603 0.0199593 0.0199583 0.0199574 0.0199566 0.0199558 0.0199551 0.0199545 0.0199541 0.0199537 0.0199535 0.0199533 0.0199534 0.0199535 0.0199538 0.0199543 0.019955 0.0199558 0.0199567 0.0199579 0.0199592 0.0199608 0.0199625 0.0199645 0.0199667 0.0199691 0.0199718 0.0199748 0.019978 0.0199815 0.0199853 0.0199893 0.0199937 0.0199983 0.0200033 0.0200085 0.0200141 0.02002 0.0200262 0.0200327 0.0200396 0.0200468 0.0200543 0.0200622 0.0200704 0.0200789 0.0200878 0.020097 0.0201065 0.0201164 0.0201266 0.0201371 0.0201479 0.020159 0.0201704 0.0201821 0.0201941 0.0202063 0.0202188 0.0202316 0.0202445 0.0202577 0.0202711 0.0202847 0.0202985 0.0203124 0.0203265 0.0203407 0.0203551 0.0203695 0.020384 0.0203985 0.0204131 0.0204277 0.0204423 0.0204569 0.0204714 0.0204857 0.0205 0.0205141 0.0205281 0.0205419 0.0205554 0.0205688 0.0205818 0.0205946 0.0206071 0.0206193 0.0206311 0.0206426 0.0206536 0.0206643 0.0206746 0.0206844 0.0206938 0.0207027 0.0207111 0.0207191 0.0207265 0.0207334 0.0207398 0.0207457 0.020751 0.0207557 0.0207599 0.0207635 0.0207665 0.0207689 0.0207708 0.020772 0.0207726 0.0207725 0.0207719 0.0207705 0.0207686 0.020766 0.0207627 0.0207588 0.0207542 0.0207489 0.020743 0.0207364 0.0207292 0.0207213 0.0207127 0.0207034 0.0206935 0.020683 0.0206718 0.02066 0.0206476 0.0206346 0.020621 0.0206069 0.0205922 0.020577 0.0205614 0.0205452 0.0205287 0.0205118 0.0204944 0.0204768 0.0204588 0.0204406 0.0204221 0.0204034 0.0203845 0.0203654 0.0203461 0.0203267 0.0203072 0.0202876 0.0202679 0.0202482 0.0202286 0.020209 0.0201895 0.0201702 0.0201511 0.0201324 0.020114 0.0200961 0.0200787 0.0200619 0.0200458 0.0200305 0.020016 0.0200023 0.0199897 0.019978 0.0199674 0.0199578 0.0199493 0.0199419 0.0199354 0.0199298 0.0199248 0.0199201 0.0199154 0.0199101 0.0199036 0.0198949 0.0198831 0.0198667 0.019844 0.0198131 0.0197718 0.0197187 0.0196538 0.0195787 0.0194938 0.0193949 0.0192763 0.0191311 0.0189298 0.0186599 0.018318 0.017907 0.0174273 0.0168782 0.016256 0.0155586 0.0147903 0.013966 0.0131027 0.012199 0.0112347 0.0101854 0.00905488 0.00784978 0.00654343 0.00509099 0.00346804 0.00169154 -0.000408726 -0.00269678 -0.00568046 -0.00920003 -0.0136506 -0.0181057 0 0 0 0 0 0 0 0 0 0 0 0 0 0 0 0 0 0 0 0 0 0 0 0 0 0 0 0 0 0 0 0 0 0 0 0 0 0 0 0 0 0 0 0 0 0 0 0 0 0 0 0 0 0 0 0 0 0 0 0 0 0 0 0 0 0 0 0 0 0 0 0 0 0 0 0 0 0 0 0 0 0 0 0 0 0 0 0 0 0 0 0 0 0 0 0 0 0 0 0 0 0 0 0 0 0 0 0 0 0 0 0 0 0 0 0 0 0 0 0 0 0 0 0 0 0 0 0 0 0 0 0 0 0 0 0 0 0 0 0 0 0 0 0 0 0 0 0 0 0 0 0 0 0 0 0 0 0 0 0 0 0 0 0 0 0 0 0 0 0 0 0 0 -0.0294723 -0.0213836 -0.011728 -1.51788e-18 