# vtk DataFile Version 2.0
iteration 2079
ASCII

DATASET STRUCTURED_POINTS
DIMENSIONS 621 64 1
ORIGIN 0 0 0
SPACING 0.00161031 0.00161031 0.00161031

POINT_DATA 39744
SCALARS P float 1
LOOKUP_TABLE default
0 0 0 0 0 0 0 0 0 0 0 0 0 0 0 0 0 0 0 0 0 0 0 0 0 0 0 0 0 0 0 0 0 0 0 0 0 0 0 0 0 0 0 0 0 0 0 0 0 0 0 0 0 0 0 0 0 0 0 0 0 0 0 0 0 0 0 0 0 0 0 0 0 0 0 0 0 0 0 0 0 0 0 0 0 0 0 0 0 0 0 0 0 0 0 0 0 0 0 0 0 0 0 0 0 0 0 0 0 0 0 0 0 0 0 0 0 0 0 0 0 0 0 0 0 0 0 0 0 0 0 0 0 0 0 0 0 0 0 0 0 0 0 0 0 0 0 0 0 0 0 0 0 0 0 0 0 0 0 0 0 0 0 0 0 0 0 0 0 0 0 0 0 0 0 0 0 0 0 0 0 0 0 0 0 0 0 0 0 0 0 0 0 0 0 0 0 0 0 0 0 0 0 0 0 0 0 0 0 0 0 0 0 0 0 0 0 0 0 0 0 0 0 0 0 0 0 0 0 0 0 0 0 0 0 0 0 0 0 0 0 0 0 0 0 0 0 0 0 0 0 0 0 0 0 0 0 0 0 0 0 0 0 0 0 0 0 0 0 0 0 0 0 0 0 0 0 0 0 0 0 0 0 0 0 0 0 0 0 0 0 0 0 0 0 0 0 0 0 0 0 0 0 0 0 0 0 0 0 0 0 0 0 0 0 0 0 0 0 0 0 0 0 0 0 0 0 0 0 0 0 0 0 0 0 0 0 0 0 0 0 0 0 0 0 0 0 0 0 0 0 0 0 0 0 0 0 0 0 0 0 0 0 0 0 0 0 0 0 0 0 0 0 0 0 0 0 0 0 0 0 0 0 0 0 0 0 0 0 0 0 0 0 0 0 0 0 0 0 0 0 0 0 0 0 0 0 0 0 0 0 0 0 0 0 0 0 0 0 0 0 0 0 0 0 0 0 0 0 0 0 0 0 0 0 0 0 0 0 0 0 0 0 0 0 0 0 0 0 0 0 0 0 0 0 0 0 0 0 0 0 0 0 0 0 0 0 0 0 0 0 0 0 0 0 0 0 0 0 0 0 0 0 0 0 0 0 0 0 0 0 0 0 0 0 0 0 0 0 0 0 0 0 0 0 0 0 0 0 0 0 0 0 0 0 0 0 0 0 0 0 0 0 0 0 0 0 0 0 0 0 0 0 0 0 0 0 0 0 0 0 0 0 0 0 0 0 0 0 0 0 0 0 0 0 0 0 0 0 0 0 0 0 0 0 0 0 0 0 0 0 0 0 0 0 0 0 0 0 0 0 0 0 0 0 0 0 0 0 0 0 0 0 0 0 0 0 0 0 0 0 0 0 0 0 0 0 0 0 0 0 0 0 0 0 0 0 0 0 0 0 
0.02 0.02 0.02 0.02 0.02 0.02 0.02 0.02 0.02 0.02 0.02 0.02 0.02 0.02 0.02 0.02 0.02 0.02 0.02 0.02 0.02 0.02 0.02 0.02 0.02 0.02 0.02 0.02 0.02 0.02 0.02 0.02 0.02 0.02 0.02 0.02 0.02 0.02 0.02 0.02 0.02 0.02 0.02 0.02 0.02 0.02 0.02 0.02 0.02 0.02 0.02 0.02 0.02 0.02 0.02 0.02 0.02 0.02 0.02 0.02 0.02 0.02 0.02 0.02 0.02 0.02 0.02 0.02 0.02 0.02 0.02 0.02 0.02 0.02 0.02 0.02 0.02 0.02 0.02 0.02 0.02 0.02 0.02 0.02 0.02 0.02 0.02 0.02 0.02 0.02 0.02 0.02 0.02 0.02 0.02 0.02 0.02 0.02 0.02 0.02 0.02 0.02 0.02 0.02 0.02 0.02 0.02 0.02 0.02 0.02 0.02 0.02 0.02 0.02 0.02 0.02 0.02 0.02 0.02 0.02 0.02 0.02 0.02 0.02 0.02 0.02 0.02 0.02 0.02 0.02 0.02 0.02 0.02 0.02 0.02 0.02 0.02 0.02 0.02 0.02 0.02 0.02 0.02 0.02 0.02 0.02 0.02 0.02 0.02 0.02 0.02 0.02 0.02 0.02 0.02 0.02 0.02 0.02 0.02 0.02 0.02 0.02 0.02 0.02 0.02 0.02 0.02 0.02 0.02 0.02 0.02 0.02 0.02 0.02 0.02 0.02 0.02 0.02 0.0200001 0.0200001 0.0200001 0.0200001 0.0200001 0.0200001 0.0200001 0.0200001 0.0200001 0.0200002 0.0200002 0.0200002 0.0200002 0.0200002 0.0200003 0.0200003 0.0200003 0.0200003 0.0200004 0.0200004 0.0200005 0.0200005 0.0200006 0.0200006 0.0200007 0.0200007 0.0200008 0.0200009 0.020001 0.0200011 0.0200012 0.0200013 0.0200014 0.0200015 0.0200016 0.0200018 0.0200019 0.0200021 0.0200023 0.0200025 0.0200027 0.0200029 0.0200031 0.0200033 0.0200036 0.0200039 0.0200042 0.0200045 0.0200048 0.0200051 0.0200055 0.0200059 0.0200063 0.0200067 0.0200071 0.0200076 0.0200081 0.0200086 0.0200091 0.0200096 0.0200102 0.0200108 0.0200114 0.020012 0.0200126 0.0200133 0.020014 0.0200146 0.0200153 0.020016 0.0200168 0.0200175 0.0200182 0.020019 0.0200197 0.0200205 0.0200212 0.0200219 0.0200227 0.0200234 0.0200241 0.0200247 0.0200254 0.020026 0.0200266 0.0200271 0.0200276 0.0200281 0.0200285 0.0200288 0.0200291 0.0200293 0.0200293 0.0200293 0.0200292 0.020029 0.0200288 0.0200284 0.0200279 0.0200272 0.0200265 0.0200256 0.0200246 0.0200234 0.020022 0.0200205 0.0200188 0.020017 0.0200149 0.0200127 0.0200102 0.0200076 0.0200048 0.0200017 0.0199985 0.019995 0.0199913 0.0199873 0.0199832 0.0199787 0.0199741 0.0199692 0.0199641 0.0199587 0.0199531 0.0199473 0.0199412 0.0199349 0.0199283 0.0199215 0.0199145 0.0199073 0.0198998 0.0198921 0.0198842 0.0198761 0.0198679 0.0198594 0.0198507 0.0198419 0.019833 0.0198238 0.0198146 0.0198052 0.0197957 0.0197861 0.0197765 0.0197667 0.0197569 0.0197471 0.0197372 0.0197274 0.0197175 0.0197076 0.0196978 0.019688 0.0196783 0.0196687 0.0196592 0.0196497 0.0196404 0.0196313 0.0196223 0.0196134 0.0196047 0.0195963 0.019588 0.0195799 0.0195721 0.0195644 0.0195571 0.0195499 0.0195431 0.0195365 0.0195301 0.019524 0.0195182 0.0195127 0.0195074 0.0195027 0.0194984 0.0194942 0.0194908 0.0194878 0.0194851 0.0194828 0.0194809 0.0194793 0.0194782 0.0194774 0.019477 0.019477 0.0194773 0.019478 0.0194791 0.0194806 0.0194824 0.0194845 0.019487 0.0194899 0.0194931 0.0194966 0.0195004 0.0195046 0.019509 0.0195138 0.0195188 0.0195242 0.0195298 0.0195357 0.0195418 0.0195482 0.0195548 0.0195617 0.0195688 0.0195761 0.0195837 0.0195914 0.0195993 0.0196074 0.0196157 0.0196242 0.0196329 0.0196417 0.0196507 0.0196598 0.0196692 0.0196786 0.0196883 0.0196981 0.019708 0.0197182 0.0197285 0.019739 0.0197496 0.0197605 0.0197715 0.0197828 0.0197943 0.019806 0.0198179 0.0198301 0.0198426 0.0198553 0.0198683 0.0198816 0.0198951 0.019909 0.0199231 0.0199376 0.0199523 0.0199674 0.0199826 0.0199982 0.0200139 0.0200299 0.0200461 0.0200624 0.0200788 0.0200952 0.0201117 0.0201282 0.0201446 0.0201609 0.020177 0.0201929 0.0202086 0.0202238 0.0202387 0.0202531 0.020267 0.0202803 0.0202929 0.0203047 0.0203156 0.0203256 0.0203344 0.0203419 0.0203481 0.0203528 0.0203558 0.0203571 0.0203564 0.0203537 0.0203488 0.0203415 0.0203319 0.0203195 0.0203044 0.0202862 0.0202647 0.0202394 0.02021 0.0201759 0.0201366 0.0200915 0.02004 0.0199814 0.0199152 0.0198409 0.0197583 0.0196673 0.0195677 0.01946 0.0193444 0.0192211 0.0190904 0.0189524 0.0188065 0.0186521 0.0184876 0.0183104 0.0181168 0.0179037 0.0176707 0.017405 0.0170973 0.0167763 0.0168689 0.0194852 0 0 0 0 0 0 0 0 0 0 0 0 0 0 0 0 0 0 0 0 0 0 0 0 0 0 0 0 0 0 0 0 0 0 0 0 0 0 0 0 0 0 0 0 0 0 0 0 0 0 0 0 0 0 0 0 0 0 0 0 0 0 0 0 0 0 0 0 0 0 0 0 0 0 0 0 0 0 0 0 0 0 0 0 0 0 0 0 0 0 0 0 0 0 0 0 0 0 0 0 0 0 0 0 0 0 0 0 0 0 0 0 0 0 0 0 0 0 0 0 0 0 0 
0.02 0.02 0.02 0.02 0.02 0.02 0.02 0.02 0.02 0.02 0.02 0.02 0.02 0.02 0.02 0.02 0.02 0.02 0.02 0.02 0.02 0.02 0.02 0.02 0.02 0.02 0.02 0.02 0.02 0.02 0.02 0.02 0.02 0.02 0.02 0.02 0.02 0.02 0.02 0.02 0.02 0.02 0.02 0.02 0.02 0.02 0.02 0.02 0.02 0.02 0.02 0.02 0.02 0.02 0.02 0.02 0.02 0.02 0.02 0.02 0.02 0.02 0.02 0.02 0.02 0.02 0.02 0.02 0.02 0.02 0.02 0.02 0.02 0.02 0.02 0.02 0.02 0.02 0.02 0.02 0.02 0.02 0.02 0.02 0.02 0.02 0.02 0.02 0.02 0.02 0.02 0.02 0.02 0.02 0.02 0.02 0.02 0.02 0.02 0.02 0.02 0.02 0.02 0.02 0.02 0.02 0.02 0.02 0.02 0.02 0.02 0.02 0.02 0.02 0.02 0.02 0.02 0.02 0.02 0.02 0.02 0.02 0.02 0.02 0.02 0.02 0.02 0.02 0.02 0.02 0.02 0.02 0.02 0.02 0.02 0.02 0.02 0.02 0.02 0.02 0.02 0.02 0.02 0.02 0.02 0.02 0.02 0.02 0.02 0.02 0.02 0.02 0.02 0.02 0.02 0.02 0.02 0.02 0.02 0.02 0.02 0.02 0.02 0.02 0.02 0.02 0.02 0.02 0.02 0.02 0.02 0.02 0.02 0.02 0.02 0.02 0.02 0.02 0.0200001 0.0200001 0.0200001 0.0200001 0.0200001 0.0200001 0.0200001 0.0200001 0.0200001 0.0200001 0.0200002 0.0200002 0.0200002 0.0200002 0.0200003 0.0200003 0.0200003 0.0200003 0.0200004 0.0200004 0.0200005 0.0200005 0.0200006 0.0200006 0.0200007 0.0200007 0.0200008 0.0200009 0.020001 0.0200011 0.0200012 0.0200013 0.0200014 0.0200015 0.0200016 0.0200018 0.0200019 0.0200021 0.0200023 0.0200024 0.0200026 0.0200029 0.0200031 0.0200033 0.0200036 0.0200038 0.0200041 0.0200044 0.0200048 0.0200051 0.0200055 0.0200058 0.0200062 0.0200067 0.0200071 0.0200076 0.020008 0.0200085 0.020009 0.0200096 0.0200101 0.0200107 0.0200113 0.0200119 0.0200126 0.0200132 0.0200139 0.0200146 0.0200153 0.020016 0.0200167 0.0200174 0.0200182 0.0200189 0.0200197 0.0200204 0.0200211 0.0200219 0.0200226 0.0200233 0.020024 0.0200247 0.0200253 0.0200259 0.0200265 0.0200271 0.0200276 0.020028 0.0200284 0.0200288 0.0200291 0.0200293 0.0200293 0.0200293 0.0200293 0.0200291 0.0200288 0.0200285 0.020028 0.0200274 0.0200266 0.0200258 0.0200248 0.0200236 0.0200223 0.0200208 0.0200191 0.0200173 0.0200153 0.0200131 0.0200107 0.0200081 0.0200053 0.0200023 0.0199991 0.0199956 0.019992 0.0199881 0.0199839 0.0199796 0.019975 0.0199702 0.0199651 0.0199598 0.0199542 0.0199484 0.0199424 0.0199361 0.0199296 0.0199229 0.019916 0.0199088 0.0199014 0.0198937 0.0198859 0.0198779 0.0198697 0.0198612 0.0198527 0.0198439 0.019835 0.0198259 0.0198167 0.0198074 0.0197979 0.0197884 0.0197788 0.0197691 0.0197593 0.0197495 0.0197397 0.0197298 0.01972 0.0197101 0.0197003 0.0196906 0.0196808 0.0196712 0.0196617 0.0196522 0.0196429 0.0196337 0.0196246 0.0196157 0.019607 0.0195984 0.01959 0.0195819 0.0195739 0.0195662 0.0195588 0.0195515 0.0195445 0.0195378 0.0195314 0.0195253 0.0195196 0.0195142 0.019509 0.0195043 0.0195001 0.0194963 0.0194929 0.0194898 0.0194871 0.0194848 0.0194828 0.0194812 0.01948 0.0194792 0.0194788 0.0194787 0.019479 0.0194797 0.0194807 0.0194821 0.0194839 0.019486 0.0194885 0.0194913 0.0194944 0.0194979 0.0195017 0.0195058 0.0195102 0.0195149 0.0195199 0.0195252 0.0195308 0.0195366 0.0195427 0.0195491 0.0195557 0.0195625 0.0195695 0.0195768 0.0195843 0.019592 0.0195999 0.019608 0.0196162 0.0196247 0.0196333 0.019642 0.019651 0.0196601 0.0196694 0.0196788 0.0196884 0.0196982 0.0197081 0.0197182 0.0197284 0.0197388 0.0197495 0.0197603 0.0197712 0.0197825 0.0197939 0.0198055 0.0198174 0.0198295 0.0198419 0.0198545 0.0198675 0.0198807 0.0198942 0.0199079 0.019922 0.0199364 0.019951 0.0199659 0.0199811 0.0199966 0.0200122 0.0200281 0.0200442 0.0200604 0.0200767 0.0200931 0.0201095 0.0201259 0.0201422 0.0201585 0.0201745 0.0201904 0.020206 0.0202212 0.0202361 0.0202506 0.0202645 0.0202778 0.0202905 0.0203024 0.0203134 0.0203235 0.0203324 0.0203402 0.0203466 0.0203515 0.0203548 0.0203563 0.020356 0.0203536 0.020349 0.0203422 0.0203329 0.020321 0.0203062 0.0202884 0.0202672 0.0202423 0.0202131 0.0201794 0.0201404 0.0200955 0.0200442 0.0199858 0.0199199 0.0198458 0.0197634 0.0196724 0.0195729 0.0194652 0.0193493 0.0192257 0.0190944 0.0189555 0.0188085 0.0186528 0.0184868 0.0183078 0.0181123 0.0178978 0.0176655 0.0174122 0.0171096 0.0168431 0.0167556 0.017079 0.016639 0.0160005 0.0153644 0.0146816 0.0138547 0.0128006 0.0121314 0.0129839 0 0 0 0 0 0 0 0 0 0 0 0 0 0 0 0 0 0 0 0 0 0 0 0 0 0 0 0 0 0 0 0 0 0 0 0 0 0 0 0 0 0 0 0 0 0 0 0 0 0 0 0 0 0 0 0 0 0 0 0 0 0 0 0 0 0 0 0 0 0 0 0 0 0 0 0 0 0 0 0 0 0 0 0 0 0 0 0 0 0 0 0 0 0 0 0 0 0 0 0 0 0 0 0 0 0 0 0 0 0 0 0 0 0 0 
0.02 0.02 0.02 0.02 0.02 0.02 0.02 0.02 0.02 0.02 0.02 0.02 0.02 0.02 0.02 0.02 0.02 0.02 0.02 0.02 0.02 0.02 0.02 0.02 0.02 0.02 0.02 0.02 0.02 0.02 0.02 0.02 0.02 0.02 0.02 0.02 0.02 0.02 0.02 0.02 0.02 0.02 0.02 0.02 0.02 0.02 0.02 0.02 0.02 0.02 0.02 0.02 0.02 0.02 0.02 0.02 0.02 0.02 0.02 0.02 0.02 0.02 0.02 0.02 0.02 0.02 0.02 0.02 0.02 0.02 0.02 0.02 0.02 0.02 0.02 0.02 0.02 0.02 0.02 0.02 0.02 0.02 0.02 0.02 0.02 0.02 0.02 0.02 0.02 0.02 0.02 0.02 0.02 0.02 0.02 0.02 0.02 0.02 0.02 0.02 0.02 0.02 0.02 0.02 0.02 0.02 0.02 0.02 0.02 0.02 0.02 0.02 0.02 0.02 0.02 0.02 0.02 0.02 0.02 0.02 0.02 0.02 0.02 0.02 0.02 0.02 0.02 0.02 0.02 0.02 0.02 0.02 0.02 0.02 0.02 0.02 0.02 0.02 0.02 0.02 0.02 0.02 0.02 0.02 0.02 0.02 0.02 0.02 0.02 0.02 0.02 0.02 0.02 0.02 0.02 0.02 0.02 0.02 0.02 0.02 0.02 0.02 0.02 0.02 0.02 0.02 0.02 0.02 0.02 0.02 0.02 0.02 0.02 0.02 0.02 0.02 0.02 0.02 0.0200001 0.0200001 0.0200001 0.0200001 0.0200001 0.0200001 0.0200001 0.0200001 0.0200001 0.0200001 0.0200002 0.0200002 0.0200002 0.0200002 0.0200002 0.0200003 0.0200003 0.0200003 0.0200004 0.0200004 0.0200005 0.0200005 0.0200006 0.0200006 0.0200007 0.0200007 0.0200008 0.0200009 0.020001 0.020001 0.0200011 0.0200012 0.0200014 0.0200015 0.0200016 0.0200018 0.0200019 0.0200021 0.0200022 0.0200024 0.0200026 0.0200028 0.0200031 0.0200033 0.0200036 0.0200038 0.0200041 0.0200044 0.0200047 0.0200051 0.0200054 0.0200058 0.0200062 0.0200066 0.020007 0.0200075 0.020008 0.0200085 0.020009 0.0200095 0.0200101 0.0200107 0.0200113 0.0200119 0.0200125 0.0200131 0.0200138 0.0200145 0.0200152 0.0200159 0.0200166 0.0200173 0.0200181 0.0200188 0.0200196 0.0200203 0.020021 0.0200218 0.0200225 0.0200232 0.0200239 0.0200246 0.0200252 0.0200259 0.0200264 0.020027 0.0200275 0.020028 0.0200284 0.0200287 0.020029 0.0200292 0.0200293 0.0200293 0.0200293 0.0200291 0.0200289 0.0200285 0.020028 0.0200274 0.0200267 0.0200259 0.0200249 0.0200237 0.0200224 0.020021 0.0200194 0.0200176 0.0200156 0.0200134 0.0200111 0.0200085 0.0200057 0.0200028 0.0199996 0.0199962 0.0199926 0.0199888 0.0199847 0.0199804 0.0199759 0.0199711 0.0199661 0.0199609 0.0199554 0.0199497 0.0199437 0.0199375 0.0199311 0.0199244 0.0199176 0.0199105 0.0199031 0.0198956 0.0198878 0.0198799 0.0198718 0.0198634 0.0198549 0.0198462 0.0198374 0.0198284 0.0198193 0.0198101 0.0198007 0.0197912 0.0197817 0.019772 0.0197623 0.0197526 0.0197428 0.019733 0.0197232 0.0197134 0.0197036 0.0196938 0.0196841 0.0196745 0.019665 0.0196555 0.0196461 0.0196369 0.0196278 0.0196188 0.01961 0.0196014 0.019593 0.0195848 0.0195768 0.019569 0.0195614 0.0195542 0.0195472 0.0195405 0.0195342 0.0195281 0.0195224 0.0195171 0.0195122 0.0195076 0.0195034 0.0194996 0.0194961 0.019493 0.0194903 0.0194879 0.0194859 0.0194843 0.0194831 0.0194822 0.0194817 0.0194816 0.0194819 0.0194825 0.0194835 0.0194848 0.0194865 0.0194886 0.019491 0.0194937 0.0194968 0.0195002 0.019504 0.019508 0.0195124 0.019517 0.019522 0.0195272 0.0195327 0.0195384 0.0195445 0.0195507 0.0195573 0.019564 0.019571 0.0195782 0.0195856 0.0195932 0.019601 0.019609 0.0196172 0.0196255 0.0196341 0.0196428 0.0196516 0.0196606 0.0196698 0.0196792 0.0196887 0.0196984 0.0197082 0.0197182 0.0197283 0.0197387 0.0197492 0.0197599 0.0197708 0.0197819 0.0197932 0.0198048 0.0198166 0.0198286 0.0198409 0.0198534 0.0198662 0.0198793 0.0198927 0.0199064 0.0199203 0.0199346 0.0199491 0.0199639 0.0199789 0.0199943 0.0200098 0.0200255 0.0200415 0.0200575 0.0200737 0.02009 0.0201063 0.0201226 0.0201388 0.0201549 0.0201709 0.0201866 0.0202022 0.0202174 0.0202322 0.0202466 0.0202605 0.0202739 0.0202866 0.0202985 0.0203097 0.0203199 0.020329 0.020337 0.0203436 0.0203488 0.0203524 0.0203543 0.0203544 0.0203524 0.0203483 0.0203419 0.0203331 0.0203217 0.0203075 0.0202902 0.0202695 0.0202451 0.0202164 0.0201831 0.0201445 0.0201 0.020049 0.0199909 0.0199252 0.0198513 0.019769 0.0196781 0.0195786 0.0194707 0.0193546 0.0192306 0.0190988 0.0189591 0.0188112 0.0186543 0.018487 0.0183065 0.0181095 0.0178943 0.0176659 0.0174342 0.0171723 0.0169307 0.0168443 0.0167743 0.0163869 0.0158899 0.0152444 0.0145333 0.0137321 0.0127103 0.0119015 0.0114704 0.0102782 0.00888661 0.00848583 0 0 0 0 0 0 0 0 0 0 0 0 0 0 0 0 0 0 0 0 0 0 0 0 0 0 0 0 0 0 0 0 0 0 0 0 0 0 0 0 0 0 0 0 0 0 0 0 0 0 0 0 0 0 0 0 0 0 0 0 0 0 0 0 0 0 0 0 0 0 0 0 0 0 0 0 0 0 0 0 0 0 0 0 0 0 0 0 0 0 0 0 0 0 0 0 0 0 0 0 0 0 0 0 0 0 0 0 0 0 0 -4.33681e-19 
0.02 0.02 0.02 0.02 0.02 0.02 0.02 0.02 0.02 0.02 0.02 0.02 0.02 0.02 0.02 0.02 0.02 0.02 0.02 0.02 0.02 0.02 0.02 0.02 0.02 0.02 0.02 0.02 0.02 0.02 0.02 0.02 0.02 0.02 0.02 0.02 0.02 0.02 0.02 0.02 0.02 0.02 0.02 0.02 0.02 0.02 0.02 0.02 0.02 0.02 0.02 0.02 0.02 0.02 0.02 0.02 0.02 0.02 0.02 0.02 0.02 0.02 0.02 0.02 0.02 0.02 0.02 0.02 0.02 0.02 0.02 0.02 0.02 0.02 0.02 0.02 0.02 0.02 0.02 0.02 0.02 0.02 0.02 0.02 0.02 0.02 0.02 0.02 0.02 0.02 0.02 0.02 0.02 0.02 0.02 0.02 0.02 0.02 0.02 0.02 0.02 0.02 0.02 0.02 0.02 0.02 0.02 0.02 0.02 0.02 0.02 0.02 0.02 0.02 0.02 0.02 0.02 0.02 0.02 0.02 0.02 0.02 0.02 0.02 0.02 0.02 0.02 0.02 0.02 0.02 0.02 0.02 0.02 0.02 0.02 0.02 0.02 0.02 0.02 0.02 0.02 0.02 0.02 0.02 0.02 0.02 0.02 0.02 0.02 0.02 0.02 0.02 0.02 0.02 0.02 0.02 0.02 0.02 0.02 0.02 0.02 0.02 0.02 0.02 0.02 0.02 0.02 0.02 0.02 0.02 0.02 0.02 0.02 0.02 0.02 0.02 0.02 0.02 0.0200001 0.0200001 0.0200001 0.0200001 0.0200001 0.0200001 0.0200001 0.0200001 0.0200001 0.0200001 0.0200002 0.0200002 0.0200002 0.0200002 0.0200002 0.0200003 0.0200003 0.0200003 0.0200004 0.0200004 0.0200004 0.0200005 0.0200005 0.0200006 0.0200007 0.0200007 0.0200008 0.0200009 0.0200009 0.020001 0.0200011 0.0200012 0.0200013 0.0200015 0.0200016 0.0200017 0.0200019 0.020002 0.0200022 0.0200024 0.0200026 0.0200028 0.020003 0.0200033 0.0200035 0.0200038 0.0200041 0.0200044 0.0200047 0.020005 0.0200054 0.0200057 0.0200061 0.0200066 0.020007 0.0200074 0.0200079 0.0200084 0.0200089 0.0200094 0.02001 0.0200106 0.0200112 0.0200118 0.0200124 0.020013 0.0200137 0.0200144 0.0200151 0.0200158 0.0200165 0.0200172 0.0200179 0.0200187 0.0200194 0.0200202 0.0200209 0.0200216 0.0200223 0.020023 0.0200237 0.0200244 0.0200251 0.0200257 0.0200263 0.0200268 0.0200273 0.0200278 0.0200282 0.0200286 0.0200289 0.0200291 0.0200292 0.0200292 0.0200292 0.020029 0.0200288 0.0200284 0.020028 0.0200274 0.0200267 0.0200259 0.0200249 0.0200238 0.0200226 0.0200211 0.0200195 0.0200178 0.0200159 0.0200137 0.0200114 0.0200089 0.0200062 0.0200033 0.0200002 0.0199969 0.0199933 0.0199896 0.0199856 0.0199813 0.0199769 0.0199722 0.0199673 0.0199621 0.0199567 0.0199511 0.0199453 0.0199392 0.0199328 0.0199263 0.0199195 0.0199125 0.0199053 0.0198979 0.0198902 0.0198824 0.0198744 0.0198661 0.0198577 0.0198492 0.0198404 0.0198316 0.0198225 0.0198134 0.0198041 0.0197947 0.0197853 0.0197757 0.0197661 0.0197564 0.0197467 0.019737 0.0197272 0.0197174 0.0197077 0.0196979 0.0196883 0.0196786 0.0196691 0.0196596 0.0196502 0.0196409 0.0196318 0.0196228 0.019614 0.0196053 0.0195969 0.0195886 0.0195806 0.0195728 0.0195654 0.0195581 0.0195512 0.0195446 0.0195383 0.0195323 0.0195267 0.0195215 0.0195166 0.019512 0.0195078 0.0195039 0.0195004 0.0194972 0.0194945 0.0194921 0.01949 0.0194884 0.0194871 0.0194862 0.0194856 0.0194855 0.0194857 0.0194862 0.0194872 0.0194885 0.0194901 0.0194921 0.0194944 0.0194971 0.0195001 0.0195034 0.0195071 0.019511 0.0195153 0.0195198 0.0195247 0.0195298 0.0195352 0.0195409 0.0195468 0.019553 0.0195594 0.019566 0.0195729 0.01958 0.0195873 0.0195948 0.0196024 0.0196103 0.0196184 0.0196266 0.019635 0.0196436 0.0196524 0.0196613 0.0196703 0.0196795 0.0196889 0.0196985 0.0197082 0.019718 0.0197281 0.0197383 0.0197487 0.0197592 0.01977 0.019781 0.0197922 0.0198036 0.0198152 0.0198271 0.0198392 0.0198516 0.0198643 0.0198772 0.0198904 0.0199039 0.0199177 0.0199318 0.0199461 0.0199607 0.0199756 0.0199907 0.0200061 0.0200216 0.0200374 0.0200532 0.0200692 0.0200853 0.0201014 0.0201175 0.0201335 0.0201494 0.0201652 0.0201809 0.0201962 0.0202113 0.020226 0.0202404 0.0202542 0.0202675 0.0202802 0.0202922 0.0203035 0.0203138 0.0203231 0.0203313 0.0203382 0.0203437 0.0203477 0.02035 0.0203505 0.0203491 0.0203455 0.0203398 0.0203316 0.0203209 0.0203074 0.0202908 0.0202708 0.0202471 0.0202191 0.0201865 0.0201485 0.0201047 0.0200543 0.0199968 0.0199316 0.0198582 0.0197764 0.0196859 0.0195868 0.0194791 0.0193631 0.019239 0.019107 0.0189668 0.0188182 0.0186603 0.0184918 0.0183102 0.0181126 0.0178985 0.0176764 0.0174617 0.0172532 0.0170261 0.0168601 0.0166327 0.0162772 0.0157841 0.0151614 0.0144511 0.0136909 0.0128414 0.011862 0.0110969 0.00989708 0.00856951 0.00732294 0.00570567 0.00415625 0.00102902 0 0 0 0 0 0 0 0 0 0 0 0 0 0 0 0 0 0 0 0 0 0 0 0 0 0 0 0 0 0 0 0 0 0 0 0 0 0 0 0 0 0 0 0 0 0 0 0 0 0 0 0 0 0 0 0 0 0 0 0 0 0 0 0 0 0 0 0 0 0 0 0 0 0 0 0 0 0 0 0 0 0 0 0 0 0 0 0 0 0 0 0 0 0 0 0 0 0 0 0 0 0 0 0 0 0 0 0 -1.73472e-18 
0.02 0.02 0.02 0.02 0.02 0.02 0.02 0.02 0.02 0.02 0.02 0.02 0.02 0.02 0.02 0.02 0.02 0.02 0.02 0.02 0.02 0.02 0.02 0.02 0.02 0.02 0.02 0.02 0.02 0.02 0.02 0.02 0.02 0.02 0.02 0.02 0.02 0.02 0.02 0.02 0.02 0.02 0.02 0.02 0.02 0.02 0.02 0.02 0.02 0.02 0.02 0.02 0.02 0.02 0.02 0.02 0.02 0.02 0.02 0.02 0.02 0.02 0.02 0.02 0.02 0.02 0.02 0.02 0.02 0.02 0.02 0.02 0.02 0.02 0.02 0.02 0.02 0.02 0.02 0.02 0.02 0.02 0.02 0.02 0.02 0.02 0.02 0.02 0.02 0.02 0.02 0.02 0.02 0.02 0.02 0.02 0.02 0.02 0.02 0.02 0.02 0.02 0.02 0.02 0.02 0.02 0.02 0.02 0.02 0.02 0.02 0.02 0.02 0.02 0.02 0.02 0.02 0.02 0.02 0.02 0.02 0.02 0.02 0.02 0.02 0.02 0.02 0.02 0.02 0.02 0.02 0.02 0.02 0.02 0.02 0.02 0.02 0.02 0.02 0.02 0.02 0.02 0.02 0.02 0.02 0.02 0.02 0.02 0.02 0.02 0.02 0.02 0.02 0.02 0.02 0.02 0.02 0.02 0.02 0.02 0.02 0.02 0.02 0.02 0.02 0.02 0.02 0.02 0.02 0.02 0.02 0.02 0.02 0.02 0.02 0.02 0.02 0.02 0.0200001 0.0200001 0.0200001 0.0200001 0.0200001 0.0200001 0.0200001 0.0200001 0.0200001 0.0200001 0.0200002 0.0200002 0.0200002 0.0200002 0.0200002 0.0200003 0.0200003 0.0200003 0.0200004 0.0200004 0.0200004 0.0200005 0.0200005 0.0200006 0.0200006 0.0200007 0.0200008 0.0200008 0.0200009 0.020001 0.0200011 0.0200012 0.0200013 0.0200014 0.0200016 0.0200017 0.0200019 0.020002 0.0200022 0.0200024 0.0200026 0.0200028 0.020003 0.0200032 0.0200035 0.0200037 0.020004 0.0200043 0.0200046 0.020005 0.0200053 0.0200057 0.0200061 0.0200065 0.0200069 0.0200073 0.0200078 0.0200083 0.0200088 0.0200093 0.0200099 0.0200104 0.020011 0.0200116 0.0200122 0.0200129 0.0200135 0.0200142 0.0200149 0.0200156 0.0200163 0.020017 0.0200177 0.0200185 0.0200192 0.0200199 0.0200207 0.0200214 0.0200221 0.0200228 0.0200235 0.0200242 0.0200248 0.0200254 0.020026 0.0200266 0.0200271 0.0200276 0.020028 0.0200283 0.0200286 0.0200288 0.020029 0.020029 0.020029 0.0200289 0.0200287 0.0200283 0.0200279 0.0200273 0.0200267 0.0200259 0.0200249 0.0200239 0.0200226 0.0200213 0.0200197 0.020018 0.0200161 0.0200141 0.0200118 0.0200094 0.0200067 0.0200039 0.0200009 0.0199976 0.0199942 0.0199905 0.0199866 0.0199824 0.0199781 0.0199735 0.0199687 0.0199636 0.0199584 0.0199529 0.0199471 0.0199411 0.0199349 0.0199285 0.0199219 0.019915 0.0199079 0.0199006 0.0198931 0.0198854 0.0198775 0.0198694 0.0198611 0.0198527 0.0198441 0.0198353 0.0198264 0.0198174 0.0198082 0.019799 0.0197896 0.0197802 0.0197706 0.019761 0.0197514 0.0197417 0.019732 0.0197223 0.0197125 0.0197028 0.0196932 0.0196836 0.019674 0.0196645 0.0196552 0.0196459 0.0196368 0.0196278 0.019619 0.0196104 0.0196019 0.0195937 0.0195858 0.0195781 0.0195706 0.0195635 0.0195566 0.0195501 0.0195438 0.0195379 0.0195323 0.019527 0.019522 0.0195174 0.0195132 0.0195093 0.0195057 0.0195025 0.0194997 0.0194973 0.0194952 0.0194935 0.0194921 0.0194911 0.0194905 0.0194903 0.0194904 0.0194909 0.0194918 0.019493 0.0194945 0.0194964 0.0194986 0.0195012 0.0195041 0.0195073 0.0195109 0.0195147 0.0195189 0.0195233 0.019528 0.019533 0.0195383 0.0195438 0.0195496 0.0195557 0.0195619 0.0195684 0.0195752 0.0195821 0.0195893 0.0195966 0.0196042 0.0196119 0.0196198 0.0196279 0.0196361 0.0196446 0.0196531 0.0196619 0.0196708 0.0196799 0.0196891 0.0196985 0.019708 0.0197177 0.0197276 0.0197376 0.0197478 0.0197582 0.0197688 0.0197796 0.0197906 0.0198018 0.0198133 0.019825 0.0198369 0.0198491 0.0198616 0.0198743 0.0198873 0.0199006 0.0199141 0.019928 0.0199421 0.0199564 0.0199711 0.0199859 0.020001 0.0200163 0.0200317 0.0200473 0.020063 0.0200788 0.0200946 0.0201104 0.0201262 0.0201419 0.0201574 0.0201728 0.020188 0.0202028 0.0202174 0.0202315 0.0202453 0.0202585 0.0202712 0.0202832 0.0202944 0.0203048 0.0203143 0.0203227 0.0203299 0.0203357 0.0203401 0.0203429 0.020344 0.0203432 0.0203403 0.0203353 0.0203279 0.020318 0.0203054 0.0202897 0.0202706 0.0202478 0.0202208 0.0201891 0.0201521 0.0201092 0.0200598 0.0200032 0.0199388 0.0198664 0.0197854 0.0196957 0.0195973 0.0194902 0.0193748 0.0192511 0.0191192 0.0189789 0.0188299 0.0186714 0.0185021 0.0183201 0.0181232 0.0179124 0.017697 0.0174944 0.0173086 0.0171085 0.016855 0.0165895 0.0162019 0.0157003 0.0150939 0.0143976 0.0136483 0.0128549 0.0119844 0.0109197 0.00968629 0.00836557 0.00694928 0.00527192 0.00323833 0.000421359 -0.00289184 0 0 0 0 0 0 0 0 0 0 0 0 0 0 0 0 0 0 0 0 0 0 0 0 0 0 0 0 0 0 0 0 0 0 0 0 0 0 0 0 0 0 0 0 0 0 0 0 0 0 0 0 0 0 0 0 0 0 0 0 0 0 0 0 0 0 0 0 0 0 0 0 0 0 0 0 0 0 0 0 0 0 0 0 0 0 0 0 0 0 0 0 0 0 0 0 0 0 0 0 0 0 0 0 0 0 0 -2.38524e-18 
0.02 0.02 0.02 0.02 0.02 0.02 0.02 0.02 0.02 0.02 0.02 0.02 0.02 0.02 0.02 0.02 0.02 0.02 0.02 0.02 0.02 0.02 0.02 0.02 0.02 0.02 0.02 0.02 0.02 0.02 0.02 0.02 0.02 0.02 0.02 0.02 0.02 0.02 0.02 0.02 0.02 0.02 0.02 0.02 0.02 0.02 0.02 0.02 0.02 0.02 0.02 0.02 0.02 0.02 0.02 0.02 0.02 0.02 0.02 0.02 0.02 0.02 0.02 0.02 0.02 0.02 0.02 0.02 0.02 0.02 0.02 0.02 0.02 0.02 0.02 0.02 0.02 0.02 0.02 0.02 0.02 0.02 0.02 0.02 0.02 0.02 0.02 0.02 0.02 0.02 0.02 0.02 0.02 0.02 0.02 0.02 0.02 0.02 0.02 0.02 0.02 0.02 0.02 0.02 0.02 0.02 0.02 0.02 0.02 0.02 0.02 0.02 0.02 0.02 0.02 0.02 0.02 0.02 0.02 0.02 0.02 0.02 0.02 0.02 0.02 0.02 0.02 0.02 0.02 0.02 0.02 0.02 0.02 0.02 0.02 0.02 0.02 0.02 0.02 0.02 0.02 0.02 0.02 0.02 0.02 0.02 0.02 0.02 0.02 0.02 0.02 0.02 0.02 0.02 0.02 0.02 0.02 0.02 0.02 0.02 0.02 0.02 0.02 0.02 0.02 0.02 0.02 0.02 0.02 0.02 0.02 0.02 0.02 0.02 0.02 0.02 0.02 0.02 0.02 0.0200001 0.0200001 0.0200001 0.0200001 0.0200001 0.0200001 0.0200001 0.0200001 0.0200001 0.0200002 0.0200002 0.0200002 0.0200002 0.0200002 0.0200003 0.0200003 0.0200003 0.0200004 0.0200004 0.0200004 0.0200005 0.0200005 0.0200006 0.0200006 0.0200007 0.0200008 0.0200008 0.0200009 0.020001 0.0200011 0.0200012 0.0200013 0.0200014 0.0200015 0.0200017 0.0200018 0.020002 0.0200021 0.0200023 0.0200025 0.0200027 0.0200029 0.0200032 0.0200034 0.0200037 0.0200039 0.0200042 0.0200045 0.0200049 0.0200052 0.0200056 0.0200059 0.0200063 0.0200068 0.0200072 0.0200077 0.0200081 0.0200086 0.0200092 0.0200097 0.0200103 0.0200108 0.0200114 0.020012 0.0200127 0.0200133 0.020014 0.0200147 0.0200154 0.020016 0.0200168 0.0200175 0.0200182 0.0200189 0.0200196 0.0200204 0.0200211 0.0200218 0.0200225 0.0200232 0.0200239 0.0200245 0.0200251 0.0200257 0.0200263 0.0200268 0.0200272 0.0200277 0.020028 0.0200283 0.0200285 0.0200287 0.0200288 0.0200287 0.0200286 0.0200284 0.0200281 0.0200277 0.0200272 0.0200266 0.0200258 0.0200249 0.0200239 0.0200227 0.0200214 0.0200199 0.0200182 0.0200164 0.0200144 0.0200122 0.0200099 0.0200073 0.0200045 0.0200016 0.0199984 0.0199951 0.0199915 0.0199877 0.0199837 0.0199794 0.019975 0.0199703 0.0199654 0.0199602 0.0199548 0.0199492 0.0199434 0.0199374 0.0199311 0.0199246 0.0199179 0.0199109 0.0199038 0.0198964 0.0198889 0.0198811 0.0198732 0.0198651 0.0198568 0.0198483 0.0198397 0.019831 0.0198221 0.019813 0.0198039 0.0197946 0.0197853 0.0197758 0.0197663 0.0197568 0.0197472 0.0197375 0.0197279 0.0197182 0.0197086 0.0196989 0.0196894 0.0196799 0.0196704 0.0196611 0.0196519 0.0196429 0.0196339 0.0196252 0.0196166 0.0196083 0.0196002 0.0195923 0.0195846 0.0195772 0.0195701 0.0195633 0.0195567 0.0195505 0.0195445 0.0195389 0.0195336 0.0195286 0.019524 0.0195197 0.0195157 0.0195121 0.0195089 0.019506 0.0195035 0.0195013 0.0194995 0.0194981 0.0194971 0.0194964 0.019496 0.0194961 0.0194965 0.0194972 0.0194983 0.0194997 0.0195015 0.0195036 0.0195061 0.0195088 0.0195119 0.0195153 0.019519 0.019523 0.0195273 0.0195319 0.0195368 0.0195419 0.0195473 0.0195529 0.0195588 0.0195649 0.0195712 0.0195778 0.0195846 0.0195915 0.0195987 0.0196061 0.0196136 0.0196214 0.0196293 0.0196373 0.0196456 0.019654 0.0196625 0.0196712 0.0196801 0.0196891 0.0196983 0.0197076 0.0197171 0.0197268 0.0197366 0.0197467 0.0197568 0.0197672 0.0197778 0.0197886 0.0197996 0.0198108 0.0198223 0.0198339 0.0198459 0.0198581 0.0198706 0.0198833 0.0198963 0.0199096 0.0199231 0.0199369 0.019951 0.0199653 0.0199798 0.0199945 0.0200095 0.0200246 0.0200398 0.0200552 0.0200706 0.020086 0.0201015 0.0201169 0.0201322 0.0201474 0.0201625 0.0201773 0.0201919 0.0202062 0.0202201 0.0202336 0.0202467 0.0202593 0.0202712 0.0202825 0.0202929 0.0203025 0.0203111 0.0203186 0.0203248 0.0203296 0.020333 0.0203346 0.0203345 0.0203324 0.0203283 0.0203218 0.0203129 0.0203013 0.0202867 0.0202688 0.0202471 0.0202213 0.0201908 0.020155 0.0201133 0.020065 0.0200096 0.0199465 0.0198752 0.0197954 0.0197069 0.0196096 0.0195036 0.0193891 0.0192661 0.0191347 0.0189948 0.0188457 0.0186868 0.0185172 0.0183357 0.0181414 0.0179356 0.0177263 0.0175257 0.0173389 0.0171448 0.0168989 0.0165685 0.0161468 0.0156382 0.0150396 0.0143533 0.0135962 0.0127693 0.011844 0.0107695 0.00953265 0.00817331 0.00665733 0.00489163 0.00273088 -7.88461e-05 -0.0038201 -0.00956202 -0.0165642 0 0 0 0 0 0 0 0 0 0 0 0 0 0 0 0 0 0 0 0 0 0 0 0 0 0 0 0 0 0 0 0 0 0 0 0 0 0 0 0 0 0 0 0 0 0 0 0 0 0 0 0 0 0 0 0 0 0 0 0 0 0 0 0 0 0 0 0 0 0 0 0 0 0 0 0 0 0 0 0 0 0 0 0 0 0 0 0 0 0 0 0 0 0 0 0 0 0 0 0 0 0 0 0 -0.0157873 -2.81893e-18 