# vtk DataFile Version 2.0
iteration 594
ASCII

DATASET STRUCTURED_POINTS
DIMENSIONS 621 64 1
ORIGIN 0 0 0
SPACING 0.00161031 0.00161031 0.00161031

POINT_DATA 39744
SCALARS P float 1
LOOKUP_TABLE default
0 0 0 0 0 0 0 0 0 0 0 0 0 0 0 0 0 0 0 0 0 0 0 0 0 0 0 0 0 0 0 0 0 0 0 0 0 0 0 0 0 0 0 0 0 0 0 0 0 0 0 0 0 0 0 0 0 0 0 0 0 0 0 0 0 0 0 0 0 0 0 0 0 0 0 0 0 0 0 0 0 0 0 0 0 0 0 0 0 0 0 0 0 0 0 0 0 0 0 0 0 0 0 0 0 0 0 0 0 0 0 0 0 0 0 0 0 0 0 0 0 0 0 0 0 0 0 0 0 0 0 0 0 0 0 0 0 0 0 0 0 0 0 0 0 0 0 0 0 0 0 0 0 0 0 0 0 0 0 0 0 0 0 0 0 0 0 0 0 0 0 0 0 0 0 0 0 0 0 0 0 0 0 0 0 0 0 0 0 0 0 0 0 0 0 0 0 0 0 0 0 0 0 0 0 0 0 0 0 0 0 0 0 0 0 0 0 0 0 0 0 0 0 0 0 0 0 0 0 0 0 0 0 0 0 0 0 0 0 0 0 0 0 0 0 0 0 0 0 0 0 0 0 0 0 0 0 0 0 0 0 0 0 0 0 0 0 0 0 0 0 0 0 0 0 0 0 0 0 0 0 0 0 0 0 0 0 0 0 0 0 0 0 0 0 0 0 0 0 0 0 0 0 0 0 0 0 0 0 0 0 0 0 0 0 0 0 0 0 0 0 0 0 0 0 0 0 0 0 0 0 0 0 0 0 0 0 0 0 0 0 0 0 0 0 0 0 0 0 0 0 0 0 0 0 0 0 0 0 0 0 0 0 0 0 0 0 0 0 0 0 0 0 0 0 0 0 0 0 0 0 0 0 0 0 0 0 0 0 0 0 0 0 0 0 0 0 0 0 0 0 0 0 0 0 0 0 0 0 0 0 0 0 0 0 0 0 0 0 0 0 0 0 0 0 0 0 0 0 0 0 0 0 0 0 0 0 0 0 0 0 0 0 0 0 0 0 0 0 0 0 0 0 0 0 0 0 0 0 0 0 0 0 0 0 0 0 0 0 0 0 0 0 0 0 0 0 0 0 0 0 0 0 0 0 0 0 0 0 0 0 0 0 0 0 0 0 0 0 0 0 0 0 0 0 0 0 0 0 0 0 0 0 0 0 0 0 0 0 0 0 0 0 0 0 0 0 0 0 0 0 0 0 0 0 0 0 0 0 0 0 0 0 0 0 0 0 0 0 0 0 0 0 0 0 0 0 0 0 0 0 0 0 0 0 0 0 0 0 0 0 0 0 0 0 0 0 0 0 0 0 0 0 0 0 0 0 0 0 0 0 0 0 0 0 0 0 0 0 0 0 0 0 0 0 0 0 0 0 0 0 0 0 0 0 0 0 0 0 0 0 
0.02 0.02 0.02 0.02 0.02 0.02 0.02 0.02 0.02 0.02 0.0200001 0.0200001 0.0200001 0.0200001 0.0200002 0.0200002 0.0200002 0.0200003 0.0200004 0.0200005 0.0200006 0.0200007 0.0200009 0.0200011 0.0200013 0.0200015 0.0200018 0.0200022 0.0200025 0.020003 0.0200035 0.020004 0.0200046 0.0200053 0.0200061 0.020007 0.0200079 0.020009 0.0200102 0.0200116 0.0200131 0.0200147 0.0200166 0.0200187 0.020021 0.0200236 0.0200265 0.0200297 0.0200333 0.0200373 0.0200417 0.0200465 0.0200518 0.0200576 0.0200639 0.0200707 0.0200781 0.0200859 0.0200943 0.0201032 0.0201126 0.0201224 0.0201326 0.0201432 0.020154 0.0201649 0.0201759 0.0201869 0.0201977 0.0202081 0.0202181 0.0202273 0.0202357 0.0202429 0.0202487 0.0202529 0.0202552 0.0202551 0.0202523 0.0202465 0.0202372 0.0202239 0.020206 0.0201828 0.0201536 0.0201176 0.0200736 0.0200196 0.0199494 0.0198673 0.0197705 0.0196584 0.019528 0.0193773 0.0192031 0.0190026 0.0187725 0.0185095 0.0182106 0.0178725 0.017493 0.0170701 0.0166032 0.0160927 0.0155392 0.0149437 0.0142972 0.0135894 0.0128707 0.0121986 0.0116004 0.0111997 0.0108806 0.0119794 0 0 0 0 0 0 0 0 0 0 0 0 0 0 0 0 0 0 0 0 0 0 0 0 0 0 0 0 0 0 0 0 0 0 0 0 0 0 0 0 0 0 0 0 0 0 0 0 0 0 0 0 0 0 0 0 0 0 0 0 0 0 0 0 0 0 0 0 0 0 0 0 0 0 0 0 0 0 0 0 0 0 0 0 0 0 0 0 0 0 0 0 0 0 0 0 0 0 0 0 0 0 0 0 0 0 0 0 0 0 0 0 0 0 0 0 0 0 0 0 0 0 0 0 0 0 0 0 0 0 0 0 0 0 0 0 0 0 0 0 0 0 0 0 0 0 0 0 0 0 0 0 0 0 0 0 0 0 0 0 0 0 0 0 0 0 0 0 0 0 0 0 0 0 0 0 0 0 0 0 0 0 0 0 0 0 0 0 0 0 0 0 0 0 0 0 0 0 0 0 0 0 0 0 0 0 0 0 0 0 0 0 0 0 0 0 0 0 0 0 0 0 0 0 0 0 0 0 0 0 0 0 0 0 0 0 0 0 0 0 0 0 0 0 0 0 0 0 0 0 0 0 0 0 0 0 0 0 0 0 0 0 0 0 0 0 0 0 0 0 0 0 0 0 0 0 0 0 0 0 0 0 0 0 0 0 0 0 0 0 0 0 0 0 0 0 0 0 0 0 0 0 0 0 0 0 0 0 0 0 0 0 0 0 0 0 0 0 0 0 0 0 0 0 0 0 0 0 0 0 0 0 0 0 0 0 0 0 0 0 0 0 0 0 0 0 0 0 0 0 0 0 0 0 0 0 0 0 0 0 0 0 0 0 0 0 0 0 0 0 0 0 0 0 0 0 0 0 0 0 0 0 0 0 0 0 0 0 0 0 0 0 0 0 0 0 0 0 0 0 0 0 0 0 0 0 0 0 0 0 0 0 0 0 0 0 0 0 0 0 0 0 0 0 0 0 0 0 0 0 0 0 0 0 0 0 0 0 0 0 0 0 0 0 0 0 0 0 0 0 0 0 0 0 0 0 0 0 0 0 0 0 0 0 0 0 0 0 0 0 0 0 0 0 0 0 0 0 0 0 0 0 0 0 0 0 0 0 0 0 0 0 0 0 0 0 0 0 0 0 0 0 0 0 0 0 0 
0.02 0.02 0.02 0.02 0.02 0.02 0.02 0.02 0.02 0.02 0.0200001 0.0200001 0.0200001 0.0200001 0.0200002 0.0200002 0.0200002 0.0200003 0.0200004 0.0200005 0.0200006 0.0200007 0.0200009 0.0200011 0.0200013 0.0200015 0.0200018 0.0200021 0.0200025 0.020003 0.0200034 0.020004 0.0200046 0.0200053 0.0200061 0.0200069 0.0200079 0.020009 0.0200101 0.0200115 0.020013 0.0200146 0.0200165 0.0200185 0.0200208 0.0200234 0.0200263 0.0200294 0.020033 0.0200369 0.0200413 0.020046 0.0200513 0.020057 0.0200633 0.02007 0.0200773 0.0200851 0.0200935 0.0201023 0.0201116 0.0201214 0.0201315 0.020142 0.0201527 0.0201636 0.0201746 0.0201855 0.0201963 0.0202067 0.0202166 0.0202259 0.0202343 0.0202415 0.0202474 0.0202517 0.020254 0.020254 0.0202514 0.0202457 0.0202366 0.0202234 0.0202057 0.0201827 0.0201538 0.0201181 0.0200744 0.0200216 0.0199574 0.0198774 0.0197835 0.0196731 0.019544 0.0193945 0.0192215 0.0190225 0.0187941 0.0185333 0.018237 0.0179017 0.017525 0.0171047 0.016639 0.0161274 0.0155692 0.0149639 0.0143139 0.0136255 0.0129397 0.0122919 0.0117322 0.0113687 0.0106178 0.0105857 0.00974735 0.00865782 0.00784068 0 0 0 0 0 0 0 0 0 0 0 0 0 0 0 0 0 0 0 0 0 0 0 0 0 0 0 0 0 0 0 0 0 0 0 0 0 0 0 0 0 0 0 0 0 0 0 0 0 0 0 0 0 0 0 0 0 0 0 0 0 0 0 0 0 0 0 0 0 0 0 0 0 0 0 0 0 0 0 0 0 0 0 0 0 0 0 0 0 0 0 0 0 0 0 0 0 0 0 0 0 0 0 0 0 0 0 0 0 0 0 0 0 0 0 0 0 0 0 0 0 0 0 0 0 0 0 0 0 0 0 0 0 0 0 0 0 0 0 0 0 0 0 0 0 0 0 0 0 0 0 0 0 0 0 0 0 0 0 0 0 0 0 0 0 0 0 0 0 0 0 0 0 0 0 0 0 0 0 0 0 0 0 0 0 0 0 0 0 0 0 0 0 0 0 0 0 0 0 0 0 0 0 0 0 0 0 0 0 0 0 0 0 0 0 0 0 0 0 0 0 0 0 0 0 0 0 0 0 0 0 0 0 0 0 0 0 0 0 0 0 0 0 0 0 0 0 0 0 0 0 0 0 0 0 0 0 0 0 0 0 0 0 0 0 0 0 0 0 0 0 0 0 0 0 0 0 0 0 0 0 0 0 0 0 0 0 0 0 0 0 0 0 0 0 0 0 0 0 0 0 0 0 0 0 0 0 0 0 0 0 0 0 0 0 0 0 0 0 0 0 0 0 0 0 0 0 0 0 0 0 0 0 0 0 0 0 0 0 0 0 0 0 0 0 0 0 0 0 0 0 0 0 0 0 0 0 0 0 0 0 0 0 0 0 0 0 0 0 0 0 0 0 0 0 0 0 0 0 0 0 0 0 0 0 0 0 0 0 0 0 0 0 0 0 0 0 0 0 0 0 0 0 0 0 0 0 0 0 0 0 0 0 0 0 0 0 0 0 0 0 0 0 0 0 0 0 0 0 0 0 0 0 0 0 0 0 0 0 0 0 0 0 0 0 0 0 0 0 0 0 0 0 0 0 0 0 0 0 0 0 0 0 0 0 0 0 0 0 0 0 0 0 0 0 0 0 0 0 0 0 0 0 0 0 0 0 0 0 0 0 0 0 0 0 0 0 0 0 0 0 0 0 0 
0.02 0.02 0.02 0.02 0.02 0.02 0.02 0.02 0.02 0.02 0.0200001 0.0200001 0.0200001 0.0200001 0.0200002 0.0200002 0.0200002 0.0200003 0.0200004 0.0200005 0.0200006 0.0200007 0.0200009 0.0200011 0.0200013 0.0200015 0.0200018 0.0200021 0.0200025 0.0200029 0.0200034 0.020004 0.0200046 0.0200053 0.020006 0.0200069 0.0200078 0.0200089 0.0200101 0.0200114 0.0200128 0.0200145 0.0200163 0.0200184 0.0200206 0.0200232 0.020026 0.0200292 0.0200327 0.0200365 0.0200408 0.0200456 0.0200507 0.0200564 0.0200626 0.0200693 0.0200765 0.0200842 0.0200925 0.0201012 0.0201104 0.0201201 0.0201301 0.0201405 0.0201511 0.0201618 0.0201727 0.0201835 0.0201941 0.0202044 0.0202142 0.0202234 0.0202316 0.0202387 0.0202445 0.0202486 0.0202508 0.0202507 0.020248 0.0202422 0.0202329 0.0202197 0.0202019 0.0201788 0.0201499 0.0201141 0.0200704 0.0200177 0.0199545 0.0198786 0.0197873 0.0196788 0.0195518 0.0194037 0.0192325 0.0190354 0.0188095 0.0185518 0.0182591 0.0179282 0.0175563 0.0171406 0.0166791 0.01617 0.0156133 0.0150096 0.0143674 0.0137055 0.0130533 0.0124489 0.0119591 0.0115795 0.0112721 0.010688 0.00982287 0.00852029 0.00767976 0 0 0 0 0 0 0 0 0 0 0 0 0 0 0 0 0 0 0 0 0 0 0 0 0 0 0 0 0 0 0 0 0 0 0 0 0 0 0 0 0 0 0 0 0 0 0 0 0 0 0 0 0 0 0 0 0 0 0 0 0 0 0 0 0 0 0 0 0 0 0 0 0 0 0 0 0 0 0 0 0 0 0 0 0 0 0 0 0 0 0 0 0 0 0 0 0 0 0 0 0 0 0 0 0 0 0 0 0 0 0 0 0 0 0 0 0 0 0 0 0 0 0 0 0 0 0 0 0 0 0 0 0 0 0 0 0 0 0 0 0 0 0 0 0 0 0 0 0 0 0 0 0 0 0 0 0 0 0 0 0 0 0 0 0 0 0 0 0 0 0 0 0 0 0 0 0 0 0 0 0 0 0 0 0 0 0 0 0 0 0 0 0 0 0 0 0 0 0 0 0 0 0 0 0 0 0 0 0 0 0 0 0 0 0 0 0 0 0 0 0 0 0 0 0 0 0 0 0 0 0 0 0 0 0 0 0 0 0 0 0 0 0 0 0 0 0 0 0 0 0 0 0 0 0 0 0 0 0 0 0 0 0 0 0 0 0 0 0 0 0 0 0 0 0 0 0 0 0 0 0 0 0 0 0 0 0 0 0 0 0 0 0 0 0 0 0 0 0 0 0 0 0 0 0 0 0 0 0 0 0 0 0 0 0 0 0 0 0 0 0 0 0 0 0 0 0 0 0 0 0 0 0 0 0 0 0 0 0 0 0 0 0 0 0 0 0 0 0 0 0 0 0 0 0 0 0 0 0 0 0 0 0 0 0 0 0 0 0 0 0 0 0 0 0 0 0 0 0 0 0 0 0 0 0 0 0 0 0 0 0 0 0 0 0 0 0 0 0 0 0 0 0 0 0 0 0 0 0 0 0 0 0 0 0 0 0 0 0 0 0 0 0 0 0 0 0 0 0 0 0 0 0 0 0 0 0 0 0 0 0 0 0 0 0 0 0 0 0 0 0 0 0 0 0 0 0 0 0 0 0 0 0 0 0 0 0 0 0 0 0 0 0 0 0 0 0 0 0 0 0 0 0 0 0 0 0 0 0 0 0 0 0 0 0 0 0 0 0 0 0 0 0 2.71051e-20 
0.02 0.02 0.02 0.02 0.02 0.02 0.02 0.02 0.02 0.02 0.0200001 0.0200001 0.0200001 0.0200001 0.0200002 0.0200002 0.0200002 0.0200003 0.0200004 0.0200005 0.0200006 0.0200007 0.0200009 0.0200011 0.0200013 0.0200015 0.0200018 0.0200021 0.0200025 0.0200029 0.0200034 0.0200039 0.0200045 0.0200052 0.0200059 0.0200068 0.0200077 0.0200088 0.0200099 0.0200112 0.0200126 0.0200142 0.020016 0.020018 0.0200203 0.0200228 0.0200255 0.0200286 0.020032 0.0200359 0.0200401 0.0200447 0.0200498 0.0200553 0.0200614 0.020068 0.020075 0.0200826 0.0200907 0.0200993 0.0201083 0.0201178 0.0201276 0.0201378 0.0201482 0.0201587 0.0201693 0.0201799 0.0201903 0.0202004 0.0202099 0.0202188 0.0202268 0.0202337 0.0202392 0.0202431 0.020245 0.0202446 0.0202417 0.0202356 0.0202261 0.0202127 0.0201947 0.0201715 0.0201424 0.0201065 0.0200628 0.0200102 0.0199473 0.0198723 0.0197835 0.0196781 0.0195537 0.0194087 0.0192405 0.0190467 0.0188246 0.0185713 0.0182837 0.0179587 0.0175932 0.0171844 0.0167298 0.0162281 0.0156796 0.0150885 0.0144647 0.0138325 0.0132193 0.0126563 0.0121962 0.0118284 0.0115079 0.0110194 0.0101703 0.00874264 0.00764663 0 0 0 0 0 0 0 -0.00947565 -0.0104549 -0.013916 -0.0171684 0 0 0 0 0 0 0 0 0 0 0 0 0 0 0 0 0 0 0 0 0 0 0 0 0 0 0 0 0 0 0 0 0 0 0 0 0 0 0 0 0 0 0 0 0 0 0 0 0 0 0 0 0 0 0 0 0 0 0 0 0 0 0 0 0 0 0 0 0 0 0 0 0 0 0 0 0 0 0 0 0 0 0 0 0 0 0 0 0 0 0 0 0 0 0 0 0 0 0 0 0 0 0 0 0 0 0 0 0 0 0 0 0 0 0 0 0 0 0 0 0 0 0 0 0 0 0 0 0 0 0 0 0 0 0 0 0 0 0 0 0 0 0 0 0 0 0 0 0 0 0 0 0 0 0 0 0 0 0 0 0 0 0 0 0 0 0 0 0 0 0 0 0 0 0 0 0 0 0 0 0 0 0 0 0 0 0 0 0 0 0 0 0 0 0 0 0 0 0 0 0 0 0 0 0 0 0 0 0 0 0 0 0 0 0 0 0 0 0 0 0 0 0 0 0 0 0 0 0 0 0 0 0 0 0 0 0 0 0 0 0 0 0 0 0 0 0 0 0 0 0 0 0 0 0 0 0 0 0 0 0 0 0 0 0 0 0 0 0 0 0 0 0 0 0 0 0 0 0 0 0 0 0 0 0 0 0 0 0 0 0 0 0 0 0 0 0 0 0 0 0 0 0 0 0 0 0 0 0 0 0 0 0 0 0 0 0 0 0 0 0 0 0 0 0 0 0 0 0 0 0 0 0 0 0 0 0 0 0 0 0 0 0 0 0 0 0 0 0 0 0 0 0 0 0 0 0 0 0 0 0 0 0 0 0 0 0 0 0 0 0 0 0 0 0 0 0 0 0 0 0 0 0 0 0 0 0 0 0 0 0 0 0 0 0 0 0 0 0 0 0 0 0 0 0 0 0 0 0 0 0 0 0 0 0 0 0 0 0 0 0 0 0 0 0 0 0 0 0 0 0 0 0 0 0 0 0 0 0 0 0 0 0 0 0 0 0 0 0 0 0 0 0 0 0 0 0 0 0 0 0 0 0 0 0 0 0 0 0 0 0 0 0 0 0 0 0 0 0 0 0 0 0 0 0 0 0 0 0 0 0 -0.00409237 0 
0.02 0.02 0.02 0.02 0.02 0.02 0.02 0.02 0.02 0.02 0.0200001 0.0200001 0.0200001 0.0200001 0.0200002 0.0200002 0.0200002 0.0200003 0.0200004 0.0200005 0.0200006 0.0200007 0.0200009 0.020001 0.0200012 0.0200015 0.0200018 0.0200021 0.0200024 0.0200029 0.0200033 0.0200038 0.0200044 0.0200051 0.0200058 0.0200066 0.0200075 0.0200085 0.0200097 0.0200109 0.0200123 0.0200139 0.0200156 0.0200175 0.0200197 0.0200221 0.0200248 0.0200278 0.0200311 0.0200348 0.0200389 0.0200434 0.0200483 0.0200537 0.0200596 0.0200659 0.0200728 0.0200801 0.020088 0.0200963 0.0201051 0.0201143 0.0201238 0.0201337 0.0201438 0.020154 0.0201643 0.0201745 0.0201846 0.0201943 0.0202035 0.020212 0.0202196 0.0202261 0.0202313 0.0202348 0.0202364 0.0202357 0.0202324 0.020226 0.0202162 0.0202025 0.0201842 0.0201608 0.0201316 0.0200956 0.020052 0.0199995 0.0199369 0.0198626 0.0197749 0.0196717 0.0195507 0.0194092 0.0192451 0.0190559 0.018839 0.0185915 0.0183106 0.0179932 0.0176362 0.0172368 0.0167929 0.0163032 0.0157696 0.0151982 0.0146007 0.0139996 0.0134239 0.0129015 0.0124542 0.0121043 0.0117986 0.0113945 0.0105474 0.00910815 0.0042848 0 0 0 0 0 0 -0.00726384 -0.00854 -0.0100856 -0.0130557 -0.0164269 -0.0210337 -0.0269369 0 0 0 0 0 0 0 0 0 0 0 0 0 0 0 0 0 0 0 0 0 0 0 0 0 0 0 0 0 0 0 0 0 0 0 0 0 0 0 0 0 0 0 0 0 0 0 0 0 0 0 0 0 0 0 0 0 0 0 0 0 0 0 0 0 0 0 0 0 0 0 0 0 0 0 0 0 0 0 0 0 0 0 0 0 0 0 0 0 0 0 0 0 0 0 0 0 0 0 0 0 0 0 0 0 0 0 0 0 0 0 0 0 0 0 0 0 0 0 0 0 0 0 0 0 0 0 0 0 0 0 0 0 0 0 0 0 0 0 0 0 0 0 0 0 0 0 0 0 0 0 0 0 0 0 0 0 0 0 0 0 0 0 0 0 0 0 0 0 0 0 0 0 0 0 0 0 0 0 0 0 0 0 0 0 0 0 0 0 0 0 0 0 0 0 0 0 0 0 0 0 0 0 0 0 0 0 0 0 0 0 0 0 0 0 0 0 0 0 0 0 0 0 0 0 0 0 0 0 0 0 0 0 0 0 0 0 0 0 0 0 0 0 0 0 0 0 0 0 0 0 0 0 0 0 0 0 0 0 0 0 0 0 0 0 0 0 0 0 0 0 0 0 0 0 0 0 0 0 0 0 0 0 0 0 0 0 0 0 0 0 0 0 0 0 0 0 0 0 0 0 0 0 0 0 0 0 0 0 0 0 0 0 0 0 0 0 0 0 0 0 0 0 0 0 0 0 0 0 0 0 0 0 0 0 0 0 0 0 0 0 0 0 0 0 0 0 0 0 0 0 0 0 0 0 0 0 0 0 0 0 0 0 0 0 0 0 0 0 0 0 0 0 0 0 0 0 0 0 0 0 0 0 0 0 0 0 0 0 0 0 0 0 0 0 0 0 0 0 0 0 0 0 0 0 0 0 0 0 0 0 0 0 0 0 0 0 0 0 0 0 0 0 0 0 0 0 0 0 0 0 0 0 0 0 0 0 0 0 0 0 0 0 0 0 0 0 0 0 0 0 0 0 0 0 0 0 0 0 0 0 0 0 0 0 0 0 0 0 0 0 0 0 0 0 0 0 0 0 0 0 0 0 0 0 0 0 0 -0.0130496 -0.00679964 2.1684e-19 
0.02 0.02 0.02 0.02 0.02 0.02 0.02 0.02 0.02 0.02 0.0200001 0.0200001 0.0200001 0.0200001 0.0200002 0.0200002 0.0200002 0.0200003 0.0200004 0.0200005 0.0200006 0.0200007 0.0200008 0.020001 0.0200012 0.0200015 0.0200017 0.020002 0.0200024 0.0200028 0.0200032 0.0200037 0.0200043 0.0200049 0.0200056 0.0200064 0.0200073 0.0200082 0.0200093 0.0200105 0.0200118 0.0200133 0.020015 0.0200168 0.0200189 0.0200212 0.0200238 0.0200266 0.0200298 0.0200333 0.0200372 0.0200415 0.0200463 0.0200514 0.0200571 0.0200632 0.0200698 0.0200768 0.0200844 0.0200924 0.0201008 0.0201096 0.0201188 0.0201282 0.0201379 0.0201477 0.0201576 0.0201673 0.0201769 0.0201862 0.0201949 0.020203 0.0202101 0.0202162 0.0202209 0.0202239 0.0202251 0.020224 0.0202202 0.0202135 0.0202034 0.0201893 0.0201708 0.0201472 0.0201178 0.0200818 0.0200382 0.019986 0.0199239 0.0198503 0.0197638 0.0196623 0.0195438 0.019406 0.0192464 0.0190625 0.0188517 0.0186114 0.0183386 0.0180304 0.0176839 0.0172965 0.0168665 0.0163933 0.0158795 0.0153326 0.0147652 0.0141963 0.0136517 0.0131546 0.0127227 0.0123604 0.0120913 0.0117822 0.0110395 0.00973504 0.00593707 0 0 0 0 0 -0.00393722 -0.0061881 -0.00817071 -0.0103521 -0.0127011 -0.0158377 -0.018768 -0.024938 -0.0328846 -0.0369022 0 0 0 0 0 0 0 0 0 0 0 0 0 0 0 0 0 0 0 0 0 0 0 0 0 0 0 0 0 0 0 0 0 0 0 0 0 0 0 0 0 0 0 0 0 0 0 0 0 0 0 0 0 0 0 0 0 0 0 0 0 0 0 0 0 0 0 0 0 0 0 0 0 0 0 0 0 0 0 0 0 0 0 0 0 0 0 0 0 0 0 0 0 0 0 0 0 0 0 0 0 0 0 0 0 0 0 0 0 0 0 0 0 0 0 0 0 0 0 0 0 0 0 0 0 0 0 0 0 0 0 0 0 0 0 0 0 0 0 0 0 0 0 0 0 0 0 0 0 0 0 0 0 0 0 0 0 0 0 0 0 0 0 0 0 0 0 0 0 0 0 0 0 0 0 0 0 0 0 0 0 0 0 0 0 0 0 0 0 0 0 0 0 0 0 0 0 0 0 0 0 0 0 0 0 0 0 0 0 0 0 0 0 0 0 0 0 0 0 0 0 0 0 0 0 0 0 0 0 0 0 0 0 0 0 0 0 0 0 0 0 0 0 0 0 0 0 0 0 0 0 0 0 0 0 0 0 0 0 0 0 0 0 0 0 0 0 0 0 0 0 0 0 0 0 0 0 0 0 0 0 0 0 0 0 0 0 0 0 0 0 0 0 0 0 0 0 0 0 0 0 0 0 0 0 0 0 0 0 0 0 0 0 0 0 0 0 0 0 0 0 0 0 0 0 0 0 0 0 0 0 0 0 0 0 0 0 0 0 0 0 0 0 0 0 0 0 0 0 0 0 0 0 0 0 0 0 0 0 0 0 0 0 0 0 0 0 0 0 0 0 0 0 0 0 0 0 0 0 0 0 0 0 0 0 0 0 0 0 0 0 0 0 0 0 0 0 0 0 0 0 0 0 0 0 0 0 0 0 0 0 0 0 0 0 0 0 0 0 0 0 0 0 0 0 0 0 0 0 0 0 0 0 0 0 0 0 0 0 0 0 0 0 0 0 0 0 0 0 0 0 0 0 0 0 0 0 0 0 0 0 0 0 0 0 0 0 0 0 0 0 0 0 0 0 0 0 0 0 0 0 0 0 0 -0.0281635 -0.024211 -0.0172408 -0.00938586 2.1684e-19 
0.02 0.02 0.02 0.02 0.02 0.02 0.02 0.02 0.02 0.02 0.0200001 0.0200001 0.0200001 0.0200001 0.0200002 0.0200002 0.0200002 0.0200003 0.0200004 0.0200005 0.0200006 0.0200007 0.0200008 0.020001 0.0200012 0.0200014 0.0200017 0.020002 0.0200023 0.0200027 0.0200031 0.0200036 0.0200041 0.0200047 0.0200054 0.0200061 0.0200069 0.0200078 0.0200089 0.02001 0.0200112 0.0200126 0.0200142 0.0200159 0.0200179 0.02002 0.0200225 0.0200252 0.0200282 0.0200315 0.0200352 0.0200393 0.0200437 0.0200486 0.020054 0.0200597 0.020066 0.0200727 0.0200798 0.0200874 0.0200954 0.0201038 0.0201125 0.0201214 0.0201306 0.0201399 0.0201492 0.0201584 0.0201675 0.0201761 0.0201843 0.0201918 0.0201984 0.0202039 0.0202081 0.0202106 0.0202112 0.0202096 0.0202054 0.0201983 0.0201877 0.0201733 0.0201545 0.0201307 0.0201012 0.0200652 0.0200219 0.01997 0.0199085 0.019836 0.0197508 0.0196512 0.0195352 0.0194008 0.0192456 0.0190672 0.018863 0.0186305 0.0183668 0.0180691 0.0177348 0.0173615 0.0169478 0.0164938 0.0160029 0.0154826 0.0149456 0.0144075 0.0138866 0.0134012 0.0129701 0.0126144 0.0123382 0.0121067 0.0115218 0.0102524 0.0100416 0 0 0 0 -0.00180063 -0.00379012 -0.00544003 -0.00795223 -0.0103388 -0.0128804 -0.0157132 -0.0191388 -0.0236866 -0.0299507 -0.0388898 -0.0424348 0 0 0 0 0 0 0 0 0 0 0 0 0 0 0 0 0 0 0 0 0 0 0 0 0 0 0 0 0 0 0 0 0 0 0 0 0 0 0 0 0 0 0 0 0 0 0 0 0 0 0 0 0 0 0 0 0 0 0 0 0 0 0 0 0 0 0 0 0 0 0 0 0 0 0 0 0 0 0 0 0 0 0 0 0 0 0 0 0 0 0 0 0 0 0 0 0 0 0 0 0 0 0 0 0 0 0 0 0 0 0 0 0 0 0 0 0 0 0 0 0 0 0 0 0 0 0 0 0 0 0 0 0 0 0 0 0 0 0 0 0 0 0 0 0 0 0 0 0 0 0 0 0 0 0 0 0 0 0 0 0 0 0 0 0 0 0 0 0 0 0 0 0 0 0 0 0 0 0 0 0 0 0 0 0 0 0 0 0 0 0 0 0 0 0 0 0 0 0 0 0 0 0 0 0 0 0 0 0 0 0 0 0 0 0 0 0 0 0 0 0 0 0 0 0 0 0 0 0 0 0 0 0 0 0 0 0 0 0 0 0 0 0 0 0 0 0 0 0 0 0 0 0 0 0 0 0 0 0 0 0 0 0 0 0 0 0 0 0 0 0 0 0 0 0 0 0 0 0 0 0 0 0 0 0 0 0 -0.0389978 -0.0449762 -0.0484618 -0.050623 -0.0519742 -0.0525828 -0.0526602 -0.052326 -0.0517072 -0.0508189 -0.0497768 -0.0487191 -0.0488556 -0.0555059 0 0 0 0 0 0 0 0 0 0 0 0 0 0 0 0 0 0 0 0 0 0 0 0 0 0 0 0 0 0 0 0 0 0 0 0 0 0 0 0 0 0 0 0 0 0 0 0 0 0 0 0 0 0 0 0 0 0 0 0 0 0 0 0 0 0 0 0 0 0 0 0 0 0 0 0 0 0 0 0 0 0 0 0 0 0 0 0 0 0 0 0 0 0 0 0 0 0 0 0 0 0 0 0 -0.0411048 -0.0444102 -0.0453475 -0.0456932 -0.0457813 -0.0457453 -0.0456387 -0.0454871 -0.0453048 -0.0451004 -0.0448796 -0.0446471 -0.0444069 -0.0441625 -0.0439173 -0.0436746 -0.0434372 -0.0432076 -0.0429881 -0.04278 -0.0425844 -0.0424019 -0.0422325 -0.042076 -0.0419322 -0.0418005 -0.0416807 -0.0415722 -0.0414749 -0.0413884 -0.0413126 -0.0412473 -0.0411925 -0.0411481 -0.041114 -0.0410901 -0.0410761 -0.0410718 -0.041077 -0.0410911 -0.0411139 -0.0411449 -0.0411835 -0.0412294 -0.041282 -0.041341 -0.0414059 -0.0414761 -0.0415514 -0.0416312 -0.041715 -0.0418025 -0.0418929 -0.0419859 -0.0420808 -0.0421768 -0.0422735 -0.0423698 -0.0424651 -0.0425584 -0.0426486 -0.0427347 -0.0428155 -0.0428897 -0.0429558 -0.0430122 -0.043057 -0.0430878 -0.0431013 -0.0430924 -0.043053 -0.0429687 -0.0428119 -0.0425196 -0.041886 -0.040493 -0.0384672 -0.0357262 -0.03142 -0.0258723 -0.0190378 -0.0107872 2.38524e-18 
0.02 0.02 0.02 0.02 0.02 0.02 0.02 0.02 0.02 0.02 0.0200001 0.0200001 0.0200001 0.0200001 0.0200002 0.0200002 0.0200002 0.0200003 0.0200004 0.0200004 0.0200005 0.0200007 0.0200008 0.020001 0.0200011 0.0200013 0.0200016 0.0200019 0.0200022 0.0200025 0.0200029 0.0200034 0.0200039 0.0200045 0.0200051 0.0200058 0.0200065 0.0200074 0.0200083 0.0200094 0.0200105 0.0200118 0.0200133 0.0200149 0.0200167 0.0200187 0.0200209 0.0200234 0.0200262 0.0200293 0.0200328 0.0200365 0.0200407 0.0200453 0.0200503 0.0200557 0.0200615 0.0200678 0.0200745 0.0200816 0.020089 0.0200969 0.020105 0.0201134 0.020122 0.0201306 0.0201393 0.0201479 0.0201563 0.0201643 0.0201718 0.0201787 0.0201846 0.0201895 0.020193 0.0201949 0.020195 0.0201929 0.0201882 0.0201806 0.0201696 0.0201549 0.0201358 0.0201119 0.0200823 0.0200465 0.0200034 0.0199521 0.0198913 0.0198199 0.0197363 0.0196388 0.0195256 0.0193947 0.019244 0.0190711 0.0188737 0.0186493 0.0183952 0.0181088 0.0177875 0.0174293 0.0170332 0.0166 0.0161332 0.0156402 0.015132 0.0146212 0.0141197 0.0136393 0.0131982 0.0128231 0.0125217 0.0122708 0.0117429 0.0107791 0.0107588 0.0144658 0.00894803 0.0032424 0.00157623 -0.000661332 -0.00312955 -0.00517987 -0.00767382 -0.0101297 -0.012823 -0.0156687 -0.0191259 -0.0239567 -0.0290366 -0.0384798 -0.0490095 0 0 0 0 0 0 0 0 0 0 0 0 0 0 0 0 0 0 0 0 0 0 0 0 0 0 0 0 0 0 0 0 0 0 0 0 0 0 0 0 0 0 0 0 0 0 0 0 0 0 0 0 0 0 0 0 0 0 0 0 0 0 0 0 0 0 0 0 0 0 0 0 0 0 0 0 0 0 0 0 0 0 0 0 0 0 0 0 0 0 0 0 0 0 0 0 0 0 0 0 0 0 0 0 0 0 0 0 0 0 0 0 0 0 0 0 0 0 0 0 0 0 0 0 0 0 0 0 0 0 0 0 0 0 0 0 0 0 0 0 0 0 0 0 0 0 0 0 0 0 0 0 0 0 0 0 0 0 0 0 0 0 0 0 0 0 0 0 0 0 0 0 0 0 0 0 0 0 0 0 0 0 0 0 0 0 0 0 0 0 0 0 0 0 0 0 0 0 0 0 0 0 0 0 0 0 0 0 0 0 0 0 0 0 0 0 0 0 0 0 0 0 0 0 0 0 0 0 0 0 0 0 0 0 0 0 0 0 0 0 0 0 0 0 0 0 0 0 0 0 0 0 0 0 0 0 0 0 0 0 0 0 0 0 0 0 0 0 0 0 0 0 0 0 0 0 0 0 0 0 0 0 0 0 0 0 -0.0376807 -0.0413431 -0.0453516 -0.048094 -0.0501214 -0.0514569 -0.0521316 -0.0523173 -0.0520168 -0.0514665 -0.0506526 -0.0496431 -0.0487503 -0.048562 -0.0498812 -0.0498562 -0.0485295 -0.0465649 -0.0468163 -0.0547406 0 0 0 0 0 0 0 0 0 0 0 0 0 0 0 0 0 0 0 0 0 0 0 0 0 0 0 0 0 0 0 0 0 0 0 0 0 0 0 0 0 0 0 0 0 -0.0465497 -0.0488907 -0.0496251 -0.0498748 -0.0498315 -0.0494027 -0.0492381 -0.0491874 -0.0491484 -0.0490887 -0.0490027 -0.0488936 -0.0487664 -0.0486241 -0.0484684 -0.0482999 -0.0481199 -0.0479305 -0.047735 -0.0475373 -0.0473419 -0.0471535 -0.0469764 -0.0468147 -0.0466713 -0.0465485 -0.0464475 -0.0463685 -0.0463105 -0.0462717 -0.0462495 -0.0462409 -0.046243 -0.046253 -0.0462689 -0.0462891 -0.0463131 -0.0463409 -0.046373 -0.0464101 -0.0464531 -0.0465029 -0.0465601 -0.0466251 -0.0466973 -0.0467754 -0.0468576 -0.0469427 -0.0470249 -0.0470779 -0.0470306 -0.0467455 -0.0460701 -0.0451288 -0.044577 -0.0449325 -0.0454239 -0.0456947 -0.045778 -0.0457458 -0.0456435 -0.0454948 -0.0453139 -0.0451101 -0.0448894 -0.0446566 -0.0444159 -0.0441711 -0.0439255 -0.0436826 -0.0434451 -0.0432157 -0.0429963 -0.0427885 -0.0425931 -0.0424108 -0.0422415 -0.042085 -0.0419411 -0.0418092 -0.0416889 -0.0415799 -0.0414818 -0.0413944 -0.0413175 -0.0412511 -0.041195 -0.0411492 -0.0411137 -0.0410883 -0.0410729 -0.0410672 -0.0410709 -0.0410838 -0.0411053 -0.041135 -0.0411726 -0.0412174 -0.0412692 -0.0413273 -0.0413915 -0.0414611 -0.0415358 -0.0416151 -0.0416986 -0.0417857 -0.041876 -0.0419688 -0.0420636 -0.0421597 -0.0422565 -0.042353 -0.0424486 -0.0425422 -0.0426329 -0.0427196 -0.0428012 -0.0428764 -0.0429438 -0.0430019 -0.0430489 -0.0430824 -0.0430993 -0.0430945 -0.0430596 -0.0429789 -0.0428181 -0.0424893 -0.0418154 -0.0405657 -0.0386364 -0.0358264 -0.0317873 -0.0265615 -0.0200334 -0.0116256 -1.30104e-18 
0.02 0.02 0.02 0.02 0.02 0.02 0.02 0.02 0.02 0.02 0.0200001 0.0200001 0.0200001 0.0200001 0.0200001 0.0200002 0.0200002 0.0200003 0.0200003 0.0200004 0.0200005 0.0200006 0.0200008 0.0200009 0.0200011 0.0200013 0.0200015 0.0200018 0.0200021 0.0200024 0.0200028 0.0200032 0.0200037 0.0200042 0.0200047 0.0200054 0.0200061 0.0200068 0.0200077 0.0200087 0.0200097 0.0200109 0.0200122 0.0200137 0.0200153 0.0200171 0.0200192 0.0200215 0.020024 0.0200268 0.02003 0.0200334 0.0200373 0.0200415 0.020046 0.020051 0.0200564 0.0200622 0.0200683 0.0200749 0.0200818 0.020089 0.0200965 0.0201042 0.0201121 0.02012 0.020128 0.0201359 0.0201435 0.0201508 0.0201576 0.0201637 0.0201689 0.0201731 0.020176 0.0201773 0.0201767 0.020174 0.0201688 0.0201607 0.0201494 0.0201344 0.0201151 0.020091 0.0200616 0.0200259 0.0199832 0.0199326 0.0198728 0.0198028 0.0197209 0.0196258 0.0195155 0.0193884 0.0192423 0.0190751 0.0188846 0.0186684 0.018424 0.018149 0.017841 0.0174982 0.0171201 0.0167079 0.0162653 0.0157986 0.0153166 0.0148282 0.0143413 0.0138643 0.01341 0.0130054 0.0126487 0.0122681 0.011732 0.0108832 0.0106669 0.0110104 0.00814165 0.00514384 0.00236618 -4.40867e-05 -0.00262348 -0.00497724 -0.00741147 -0.0099229 -0.0127146 -0.0157148 -0.0193895 -0.0239692 -0.0300312 -0.03599 -0.0442306 0 0 0 0 0 0 0 0 0 0 0 0 0 0 0 0 0 0 0 0 0 0 0 0 0 0 0 0 0 0 0 0 0 0 0 0 0 0 0 0 0 0 0 0 0 0 0 0 0 0 0 0 0 0 0 0 0 0 0 0 0 0 0 0 0 0 0 0 0 0 0 0 0 0 0 0 0 0 0 0 0 0 0 0 0 0 0 0 0 0 0 0 0 0 0 0 0 0 0 0 0 0 0 0 0 0 0 0 0 0 0 0 0 0 0 0 0 0 0 0 0 0 0 0 0 0 0 0 0 0 0 0 0 0 0 0 0 0 0 0 0 0 0 0 0 0 -0.0647592 -0.0671579 -0.0670468 -0.0671907 -0.0759649 0 0 0 0 0 0 0 0 0 0 0 0 0 0 0 0 0 0 0 0 0 0 0 0 0 0 0 0 0 0 0 0 0 0 0 0 0 0 0 0 0 0 0 0 0 0 0 0 0 0 0 0 0 0 0 0 0 0 0 0 0 0 0 0 0 0 0 0 0 0 0 0 0 0 0 0 0 0 0 0 0 0 0 0 0 0 0 0 0 0 0 0 0 0 0 0 0 0 0 0 0 0 0 0 0 0 0 0 0 0 0 0 0 0 0 0 0 0 0 0 0 0 0 0 0 0 0 0 0 0 0 0 -0.0406476 -0.0429685 -0.0420457 -0.0418089 -0.0437919 -0.0460843 -0.0478749 -0.0495932 -0.0508115 -0.0514619 -0.0517099 -0.0515141 -0.0510664 -0.0504148 -0.0495562 -0.0488616 -0.0488003 -0.049004 -0.0486291 -0.0476475 -0.0464577 -0.0466017 -0.048809 -0.0504413 -0.0520562 -0.0544681 -0.0572296 -0.0598125 -0.0624977 -0.0652053 -0.0677108 -0.0701047 -0.0735825 -0.0868945 0 0 0 0 0 0 0 0 0 0 0 0 0 0 0 0 0 0 0 0 0 0 0 0 0 0 -0.054801 -0.0568668 -0.0568025 -0.0553199 -0.0536888 -0.0526489 -0.0518336 -0.0508987 -0.0498755 -0.0498142 -0.049935 -0.0499859 -0.0498933 -0.049656 -0.0494903 -0.0493836 -0.0492931 -0.0491939 -0.0490782 -0.0489455 -0.0487989 -0.0486408 -0.0484726 -0.048295 -0.048109 -0.0479165 -0.0477201 -0.0475235 -0.0473306 -0.0471454 -0.046972 -0.0468136 -0.0466731 -0.0465524 -0.0464525 -0.0463735 -0.0463145 -0.0462737 -0.0462488 -0.0462372 -0.0462361 -0.0462434 -0.046257 -0.0462761 -0.0463 -0.0463288 -0.0463629 -0.0464027 -0.0464487 -0.0465016 -0.0465615 -0.0466287 -0.0467027 -0.0467828 -0.046866 -0.0469438 -0.0469935 -0.0469662 -0.0467851 -0.0464047 -0.045856 -0.045327 -0.0451489 -0.0453272 -0.0455699 -0.0457295 -0.0457776 -0.0457344 -0.0456294 -0.0454804 -0.0452998 -0.0450962 -0.0448755 -0.0446426 -0.0444017 -0.0441567 -0.0439113 -0.0436686 -0.0434317 -0.0432029 -0.0429843 -0.0427773 -0.0425828 -0.0424012 -0.0422326 -0.0420766 -0.041933 -0.0418012 -0.0416809 -0.0415716 -0.0414731 -0.0413851 -0.0413076 -0.0412404 -0.0411835 -0.0411368 -0.0411004 -0.0410742 -0.041058 -0.0410515 -0.0410546 -0.0410668 -0.0410879 -0.0411173 -0.0411546 -0.0411994 -0.0412511 -0.0413095 -0.0413739 -0.0414439 -0.0415191 -0.041599 -0.0416831 -0.041771 -0.041862 -0.0419556 -0.0420512 -0.0421482 -0.0422457 -0.042343 -0.0424393 -0.0425337 -0.0426251 -0.0427124 -0.0427945 -0.0428702 -0.042938 -0.0429965 -0.0430438 -0.0430776 -0.0430945 -0.0430893 -0.0430523 -0.0429638 -0.0427779 -0.0423994 -0.0416807 -0.0404483 -0.0385458 -0.0357823 -0.0319661 -0.0270221 -0.0206884 -0.012166 -8.67362e-19 
0.02 0.02 0.02 0.02 0.02 0.02 0.02 0.02 0.02 0.02 0.0200001 0.0200001 0.0200001 0.0200001 0.0200001 0.0200002 0.0200002 0.0200003 0.0200003 0.0200004 0.0200005 0.0200006 0.0200007 0.0200009 0.020001 0.0200012 0.0200014 0.0200017 0.0200019 0.0200022 0.0200026 0.020003 0.0200034 0.0200038 0.0200044 0.0200049 0.0200056 0.0200063 0.020007 0.0200079 0.0200088 0.0200099 0.020011 0.0200123 0.0200138 0.0200154 0.0200172 0.0200193 0.0200215 0.0200241 0.0200269 0.02003 0.0200334 0.0200372 0.0200413 0.0200458 0.0200507 0.0200559 0.0200615 0.0200674 0.0200736 0.0200802 0.020087 0.020094 0.0201011 0.0201083 0.0201155 0.0201225 0.0201294 0.0201358 0.0201418 0.0201471 0.0201516 0.020155 0.0201571 0.0201578 0.0201566 0.0201533 0.0201476 0.0201391 0.0201274 0.0201121 0.0200927 0.0200687 0.0200394 0.0200041 0.019962 0.0199122 0.0198536 0.0197851 0.0197053 0.0196127 0.0195056 0.0193824 0.0192411 0.0190797 0.0188961 0.0186881 0.0184533 0.0181896 0.0178947 0.0175673 0.017207 0.0168154 0.0163959 0.0159538 0.0154952 0.0150262 0.0145518 0.0140782 0.013614 0.0131687 0.0127246 0.0121818 0.0115314 0.010948 0.0104258 0.00954123 0.00760782 0.00511972 0.00269805 0.000135793 -0.00233995 -0.00469725 -0.00720059 -0.00977504 -0.0126367 -0.0157743 -0.0195238 -0.0242314 -0.0301185 -0.0346944 -0.0418803 0 0 0 0 0 0 0 0 0 0 -0.0832134 0 0 0 0 0 0 0 0 0 0 0 0 0 0 0 0 0 0 0 0 0 0 0 0 0 0 0 0 0 0 0 0 0 0 0 0 0 0 0 0 0 0 0 0 0 0 0 0 0 0 0 0 0 0 0 0 0 0 0 0 0 0 0 0 0 0 0 0 0 0 0 0 0 0 0 0 0 0 0 0 0 0 0 0 0 0 0 0 0 0 0 0 0 0 0 0 0 0 0 0 0 0 0 0 0 0 0 0 0 0 0 0 0 0 0 0 0 0 0 0 0 0 0 0 0 0 0 0 0 0 0 -0.0611805 -0.0596102 -0.0640503 -0.0672456 -0.0682371 -0.0684175 -0.067548 -0.0670002 -0.0679368 -0.0670942 -0.0654724 -0.065264 -0.0658001 -0.0677469 -0.0774863 0 0 0 0 0 0 0 0 0 0 0 0 0 0 0 0 0 0 0 0 0 0 0 0 0 0 0 0 0 0 0 0 0 0 -0.0713098 -0.0747926 -0.074669 -0.074077 -0.0735026 -0.0742242 -0.0852679 0 0 0 0 0 0 0 0 0 0 0 0 0 0 0 0 0 0 0 0 0 0 0 0 0 0 0 0 0 0 0 0 0 0 0 0 0 0 0 0 0 0 0 0 0 0 0 0 0 0 0 0 0 0 0 0 0 0 0 0 0 0 0 0 0 0 0 0 0 0 0 0 0 0 0 0 0 0 0 0 0 0 0 0 -0.0396442 -0.0375135 -0.0417375 -0.0440445 -0.0441513 -0.0450617 -0.0464496 -0.0477315 -0.0489652 -0.0499696 -0.0505811 -0.050842 -0.0507866 -0.0504966 -0.0500291 -0.0494617 -0.0489313 -0.0487639 -0.0485717 -0.0481686 -0.04732 -0.0466338 -0.0469626 -0.0481968 -0.0497285 -0.0516895 -0.0540795 -0.0568128 -0.0595563 -0.0623654 -0.0650712 -0.0676451 -0.0702984 -0.0735355 -0.0780323 -0.0802893 -0.0803097 -0.0809304 -0.0810119 -0.0798422 -0.0792817 -0.0790103 -0.078878 -0.0820767 0 0 0 0 0 0 0 -0.0694406 -0.0723881 -0.0708172 -0.0690412 -0.0668617 -0.064278 -0.0621983 -0.0607302 -0.059275 -0.0577771 -0.0572653 -0.0572935 -0.0568133 -0.0555657 -0.0542103 -0.0530656 -0.0520913 -0.051195 -0.0504757 -0.0502104 -0.0501275 -0.0500576 -0.0499279 -0.0497424 -0.0495797 -0.0494486 -0.0493314 -0.0492101 -0.0490778 -0.0489328 -0.048777 -0.0486126 -0.0484407 -0.048262 -0.0480775 -0.0478888 -0.0476981 -0.0475086 -0.0473239 -0.0471475 -0.0469826 -0.0468324 -0.046699 -0.0465841 -0.0464883 -0.0464116 -0.0463528 -0.0463104 -0.0462822 -0.0462659 -0.0462592 -0.0462603 -0.0462679 -0.0462812 -0.0463002 -0.0463251 -0.0463561 -0.0463937 -0.046438 -0.0464891 -0.0465472 -0.0466122 -0.0466836 -0.0467592 -0.0468315 -0.0468824 -0.0468781 -0.0467693 -0.0465161 -0.0461434 -0.0457499 -0.0454797 -0.045444 -0.0455558 -0.045688 -0.0457678 -0.0457764 -0.0457171 -0.0456056 -0.0454542 -0.0452727 -0.0450687 -0.0448477 -0.0446147 -0.0443739 -0.0441291 -0.0438842 -0.0436424 -0.0434065 -0.0431791 -0.042962 -0.0427564 -0.0425633 -0.0423829 -0.0422153 -0.0420601 -0.0419169 -0.0417854 -0.041665 -0.0415554 -0.0414564 -0.0413677 -0.0412894 -0.0412212 -0.0411633 -0.0411157 -0.0410782 -0.041051 -0.0410339 -0.0410266 -0.041029 -0.0410407 -0.0410613 -0.0410905 -0.0411278 -0.0411727 -0.0412249 -0.0412837 -0.0413488 -0.0414197 -0.0414959 -0.0415769 -0.0416623 -0.0417514 -0.0418438 -0.0419389 -0.042036 -0.0421343 -0.0422333 -0.042332 -0.0424296 -0.0425251 -0.0426176 -0.0427058 -0.0427887 -0.042865 -0.0429333 -0.042992 -0.0430393 -0.0430728 -0.0430889 -0.0430817 -0.0430395 -0.042937 -0.0427215 -0.0423006 -0.0415457 -0.0403066 -0.0384279 -0.035748 -0.0321195 -0.0273873 -0.0211639 -0.0125372 -2.1684e-19 