# vtk DataFile Version 2.0
iteration 1458
ASCII

DATASET STRUCTURED_POINTS
DIMENSIONS 621 64 1
ORIGIN 0 0 0
SPACING 0.00161031 0.00161031 0.00161031

POINT_DATA 39744
SCALARS P float 1
LOOKUP_TABLE default
0 0 0 0 0 0 0 0 0 0 0 0 0 0 0 0 0 0 0 0 0 0 0 0 0 0 0 0 0 0 0 0 0 0 0 0 0 0 0 0 0 0 0 0 0 0 0 0 0 0 0 0 0 0 0 0 0 0 0 0 0 0 0 0 0 0 0 0 0 0 0 0 0 0 0 0 0 0 0 0 0 0 0 0 0 0 0 0 0 0 0 0 0 0 0 0 0 0 0 0 0 0 0 0 0 0 0 0 0 0 0 0 0 0 0 0 0 0 0 0 0 0 0 0 0 0 0 0 0 0 0 0 0 0 0 0 0 0 0 0 0 0 0 0 0 0 0 0 0 0 0 0 0 0 0 0 0 0 0 0 0 0 0 0 0 0 0 0 0 0 0 0 0 0 0 0 0 0 0 0 0 0 0 0 0 0 0 0 0 0 0 0 0 0 0 0 0 0 0 0 0 0 0 0 0 0 0 0 0 0 0 0 0 0 0 0 0 0 0 0 0 0 0 0 0 0 0 0 0 0 0 0 0 0 0 0 0 0 0 0 0 0 0 0 0 0 0 0 0 0 0 0 0 0 0 0 0 0 0 0 0 0 0 0 0 0 0 0 0 0 0 0 0 0 0 0 0 0 0 0 0 0 0 0 0 0 0 0 0 0 0 0 0 0 0 0 0 0 0 0 0 0 0 0 0 0 0 0 0 0 0 0 0 0 0 0 0 0 0 0 0 0 0 0 0 0 0 0 0 0 0 0 0 0 0 0 0 0 0 0 0 0 0 0 0 0 0 0 0 0 0 0 0 0 0 0 0 0 0 0 0 0 0 0 0 0 0 0 0 0 0 0 0 0 0 0 0 0 0 0 0 0 0 0 0 0 0 0 0 0 0 0 0 0 0 0 0 0 0 0 0 0 0 0 0 0 0 0 0 0 0 0 0 0 0 0 0 0 0 0 0 0 0 0 0 0 0 0 0 0 0 0 0 0 0 0 0 0 0 0 0 0 0 0 0 0 0 0 0 0 0 0 0 0 0 0 0 0 0 0 0 0 0 0 0 0 0 0 0 0 0 0 0 0 0 0 0 0 0 0 0 0 0 0 0 0 0 0 0 0 0 0 0 0 0 0 0 0 0 0 0 0 0 0 0 0 0 0 0 0 0 0 0 0 0 0 0 0 0 0 0 0 0 0 0 0 0 0 0 0 0 0 0 0 0 0 0 0 0 0 0 0 0 0 0 0 0 0 0 0 0 0 0 0 0 0 0 0 0 0 0 0 0 0 0 0 0 0 0 0 0 0 0 0 0 0 0 0 0 0 0 0 0 0 0 0 0 0 0 0 0 0 0 0 0 0 0 0 0 0 0 0 0 0 0 0 0 0 0 0 0 0 0 0 0 0 0 0 0 0 0 
0.02 0.02 0.02 0.02 0.02 0.02 0.02 0.02 0.02 0.02 0.02 0.02 0.02 0.02 0.02 0.02 0.02 0.02 0.02 0.02 0.02 0.02 0.02 0.02 0.02 0.02 0.02 0.02 0.02 0.02 0.02 0.02 0.02 0.02 0.02 0.02 0.02 0.02 0.02 0.02 0.02 0.02 0.02 0.02 0.02 0.02 0.02 0.02 0.02 0.02 0.02 0.02 0.02 0.02 0.02 0.02 0.02 0.02 0.02 0.02 0.02 0.02 0.02 0.02 0.02 0.02 0.02 0.02 0.02 0.02 0.02 0.02 0.02 0.02 0.02 0.02 0.02 0.02 0.02 0.02 0.02 0.02 0.02 0.02 0.02 0.02 0.02 0.02 0.02 0.02 0.02 0.02 0.02 0.02 0.02 0.02 0.02 0.02 0.02 0.02 0.02 0.02 0.0199999 0.0199999 0.0199999 0.0199999 0.0199999 0.0199999 0.0199999 0.0199999 0.0199999 0.0199999 0.0199999 0.0199999 0.0199999 0.0199999 0.0199999 0.0199999 0.0199999 0.0199999 0.0199999 0.0199999 0.02 0.02 0.02 0.02 0.02 0.02 0.0200001 0.0200001 0.0200001 0.0200002 0.0200002 0.0200003 0.0200003 0.0200004 0.0200005 0.0200005 0.0200006 0.0200007 0.0200008 0.0200009 0.0200011 0.0200012 0.0200014 0.0200015 0.0200017 0.0200019 0.0200021 0.0200023 0.0200025 0.0200027 0.0200029 0.0200031 0.0200034 0.0200036 0.0200038 0.0200041 0.0200043 0.0200045 0.0200047 0.0200049 0.020005 0.0200051 0.0200052 0.0200052 0.0200051 0.020005 0.0200048 0.0200045 0.0200041 0.0200036 0.0200029 0.0200021 0.0200011 0.02 0.0199986 0.0199971 0.0199952 0.0199932 0.0199909 0.0199882 0.0199853 0.019982 0.0199784 0.0199744 0.0199701 0.0199653 0.0199601 0.0199544 0.0199483 0.0199417 0.0199347 0.0199271 0.019919 0.0199104 0.0199013 0.0198916 0.0198813 0.0198704 0.0198589 0.0198468 0.0198341 0.0198207 0.0198068 0.0197921 0.0197769 0.019761 0.0197444 0.0197272 0.0197093 0.0196908 0.0196716 0.0196518 0.0196313 0.0196102 0.0195884 0.0195659 0.0195428 0.019519 0.0194946 0.0194695 0.0194438 0.0194174 0.0193904 0.0193628 0.0193345 0.0193057 0.0192762 0.0192461 0.0192155 0.0191843 0.0191526 0.0191204 0.0190877 0.0190546 0.0190211 0.0189872 0.018953 0.0189186 0.018884 0.0188492 0.0188143 0.0187794 0.0187446 0.0187099 0.0186754 0.0186412 0.0186074 0.0185741 0.0185413 0.0185091 0.0184776 0.018447 0.0184173 0.0183885 0.0183608 0.0183343 0.0183089 0.0182849 0.0182622 0.018241 0.0182212 0.0182029 0.0181862 0.0181711 0.0181576 0.0181458 0.0181355 0.0181269 0.0181199 0.0181144 0.0181105 0.0181082 0.0181073 0.0181078 0.0181097 0.0181128 0.0181172 0.0181227 0.0181293 0.0181369 0.0181453 0.0181546 0.0181646 0.0181753 0.0181865 0.0181982 0.0182103 0.0182228 0.0182356 0.0182485 0.0182616 0.0182748 0.018288 0.0183012 0.0183143 0.0183273 0.0183401 0.0183527 0.0183651 0.0183772 0.018389 0.0184006 0.0184118 0.0184227 0.0184332 0.0184433 0.018453 0.0184621 0.0184705 0.0184776 0.0184829 0.0184845 0.0184809 0.0184705 0.0184658 0.0184653 0.0184634 0.0184592 0.0184523 0.0184424 0.0184287 0.0184107 0.0183877 0.0183589 0.0183235 0.0182807 0.0182294 0.0181687 0.0180975 0.0180146 0.0179188 0.0178085 0.0176825 0.017539 0.0173763 0.0171923 0.016985 0.0167538 0.0164986 0.0162116 0.0159013 0.0156139 0.0152812 0.015726 0.0180612 0 0 0 0 0 0 0 0 0 0 0 0 0 0 0 0 0 0 0 0 0 0 0 0 0 0 0 0 0 0 0 0 0 0 0 0 0 0 0 0 0 0 0 0 0 0 0 0 0 0 0 0 0 0 0 0 0 0 0 0 0 0 0 0 0 0 0 0 0 0 0 0 0 0 0 0 0 0 0 0 0 0 0 0 0 0 0 0 0 0 0 0 0 0 0 0 0 0 0 0 0 0 0 0 0 0 0 0 0 0 0 0 0 0 0 0 0 0 0 0 0 0 0 0 0 0 0 0 0 0 0 0 0 0 0 0 0 0 0 0 0 0 0 0 0 0 0 0 0 0 0 0 0 0 0 0 0 0 0 0 0 0 0 0 0 0 0 0 0 0 0 0 0 0 0 0 0 0 0 0 0 0 0 0 0 0 0 0 0 0 0 0 0 0 0 0 0 0 0 0 0 0 0 0 0 0 0 0 0 0 0 0 0 0 0 0 0 0 0 0 0 0 0 0 0 0 0 0 0 0 0 0 0 0 0 0 0 0 0 0 0 0 0 0 0 0 0 0 0 0 0 0 0 0 0 0 0 0 0 0 0 0 0 0 0 0 0 0 0 0 0 0 0 0 
0.02 0.02 0.02 0.02 0.02 0.02 0.02 0.02 0.02 0.02 0.02 0.02 0.02 0.02 0.02 0.02 0.02 0.02 0.02 0.02 0.02 0.02 0.02 0.02 0.02 0.02 0.02 0.02 0.02 0.02 0.02 0.02 0.02 0.02 0.02 0.02 0.02 0.02 0.02 0.02 0.02 0.02 0.02 0.02 0.02 0.02 0.02 0.02 0.02 0.02 0.02 0.02 0.02 0.02 0.02 0.02 0.02 0.02 0.02 0.02 0.02 0.02 0.02 0.02 0.02 0.02 0.02 0.02 0.02 0.02 0.02 0.02 0.02 0.02 0.02 0.02 0.02 0.02 0.02 0.02 0.02 0.02 0.02 0.02 0.02 0.02 0.02 0.02 0.02 0.02 0.02 0.02 0.02 0.02 0.02 0.02 0.02 0.02 0.02 0.02 0.02 0.02 0.02 0.02 0.0199999 0.0199999 0.0199999 0.0199999 0.0199999 0.0199999 0.0199999 0.0199999 0.0199999 0.0199999 0.0199999 0.0199999 0.0199999 0.0199999 0.0199999 0.02 0.02 0.02 0.02 0.02 0.02 0.02 0.02 0.0200001 0.0200001 0.0200001 0.0200002 0.0200002 0.0200003 0.0200003 0.0200004 0.0200004 0.0200005 0.0200006 0.0200007 0.0200008 0.0200009 0.020001 0.0200011 0.0200013 0.0200014 0.0200016 0.0200018 0.020002 0.0200022 0.0200024 0.0200026 0.0200028 0.020003 0.0200033 0.0200035 0.0200037 0.020004 0.0200042 0.0200044 0.0200047 0.0200049 0.020005 0.0200052 0.0200053 0.0200054 0.0200054 0.0200053 0.0200052 0.020005 0.0200047 0.0200043 0.0200038 0.0200032 0.0200024 0.0200014 0.0200003 0.0199989 0.0199974 0.0199956 0.0199936 0.0199913 0.0199887 0.0199857 0.0199825 0.0199789 0.0199749 0.0199706 0.0199658 0.0199607 0.019955 0.019949 0.0199424 0.0199354 0.0199279 0.0199198 0.0199113 0.0199021 0.0198925 0.0198822 0.0198714 0.0198599 0.0198479 0.0198352 0.0198219 0.019808 0.0197935 0.0197783 0.0197624 0.0197459 0.0197288 0.019711 0.0196926 0.0196735 0.0196537 0.0196333 0.0196123 0.0195906 0.0195683 0.0195453 0.0195216 0.0194973 0.0194724 0.0194468 0.0194206 0.0193938 0.0193663 0.0193382 0.0193096 0.0192803 0.0192504 0.01922 0.0191891 0.0191576 0.0191257 0.0190932 0.0190604 0.0190272 0.0189936 0.0189597 0.0189256 0.0188912 0.0188568 0.0188222 0.0187876 0.0187531 0.0187188 0.0186846 0.0186508 0.0186173 0.0185842 0.0185517 0.0185199 0.0184887 0.0184584 0.0184289 0.0184005 0.0183731 0.0183468 0.0183217 0.0182979 0.0182754 0.0182544 0.0182348 0.0182166 0.0182001 0.0181851 0.0181716 0.0181598 0.0181496 0.0181409 0.0181339 0.0181284 0.0181244 0.018122 0.0181209 0.0181213 0.018123 0.0181259 0.0181301 0.0181354 0.0181417 0.0181489 0.0181571 0.018166 0.0181757 0.018186 0.0181968 0.0182082 0.0182199 0.018232 0.0182444 0.0182569 0.0182696 0.0182824 0.0182952 0.018308 0.0183207 0.0183332 0.0183456 0.0183578 0.0183698 0.0183815 0.0183929 0.0184039 0.0184147 0.018425 0.0184349 0.0184444 0.0184532 0.0184613 0.0184683 0.0184739 0.0184774 0.0184777 0.0184753 0.0184708 0.0184685 0.0184676 0.0184652 0.0184606 0.0184533 0.0184429 0.0184288 0.0184103 0.0183869 0.0183578 0.0183221 0.018279 0.0182275 0.0181666 0.0180953 0.0180123 0.0179163 0.0178061 0.01768 0.0175365 0.0173739 0.0171901 0.0169833 0.016753 0.0165019 0.0162205 0.0159356 0.0156977 0.0153136 0.0152841 0.015802 0.0151875 0.0144537 0.0137829 0.0131783 0.0125315 0.0118276 0.0110139 0.0100422 0.00900827 0.00800545 0.00724578 0.007504 0 0 0 0 0 0 0 0 0 0 0 0 0 0 0 0 0 0 0 0 0 0 0 0 0 0 0 0 0 0 0 0 0 0 0 0 0 0 0 0 0 0 0 0 0 0 0 0 0 0 0 0 0 0 0 0 0 0 0 0 0 0 0 0 0 0 0 0 0 0 0 0 0 0 0 0 0 0 0 0 0 0 0 0 0 0 0 0 0 0 0 0 0 0 0 0 0 0 0 0 0 0 0 0 0 0 0 0 0 0 0 0 0 0 0 0 0 0 0 0 0 0 0 0 0 0 0 0 0 0 0 0 0 0 0 0 0 0 0 0 0 0 0 0 0 0 0 0 0 0 0 0 0 0 0 0 0 0 0 0 0 0 0 0 0 0 0 0 0 0 0 0 0 0 0 0 0 0 0 0 0 0 0 0 0 0 0 0 0 0 0 0 0 0 0 0 0 0 0 0 0 0 0 0 0 0 0 0 0 0 0 0 0 0 0 0 0 0 0 0 0 0 0 0 0 0 0 0 0 0 0 0 0 0 0 0 0 0 0 0 0 0 0 0 0 0 0 0 0 0 0 0 0 0 0 0 0 0 0 0 0 0 
0.02 0.02 0.02 0.02 0.02 0.02 0.02 0.02 0.02 0.02 0.02 0.02 0.02 0.02 0.02 0.02 0.02 0.02 0.02 0.02 0.02 0.02 0.02 0.02 0.02 0.02 0.02 0.02 0.02 0.02 0.02 0.02 0.02 0.02 0.02 0.02 0.02 0.02 0.02 0.02 0.02 0.02 0.02 0.02 0.02 0.02 0.02 0.02 0.02 0.02 0.02 0.02 0.02 0.02 0.02 0.02 0.02 0.02 0.02 0.02 0.02 0.02 0.02 0.02 0.02 0.02 0.02 0.02 0.02 0.02 0.02 0.02 0.02 0.02 0.02 0.02 0.02 0.02 0.02 0.02 0.02 0.02 0.02 0.02 0.02 0.02 0.02 0.02 0.02 0.02 0.02 0.02 0.02 0.02 0.02 0.02 0.02 0.02 0.02 0.02 0.02 0.02 0.02 0.02 0.02 0.02 0.02 0.02 0.0199999 0.0199999 0.0199999 0.0199999 0.0199999 0.0199999 0.02 0.02 0.02 0.02 0.02 0.02 0.02 0.02 0.02 0.02 0.02 0.0200001 0.0200001 0.0200001 0.0200001 0.0200002 0.0200002 0.0200003 0.0200003 0.0200004 0.0200004 0.0200005 0.0200006 0.0200007 0.0200008 0.0200009 0.020001 0.0200011 0.0200012 0.0200014 0.0200015 0.0200017 0.0200019 0.0200021 0.0200023 0.0200025 0.0200027 0.0200029 0.0200032 0.0200034 0.0200037 0.0200039 0.0200042 0.0200044 0.0200046 0.0200049 0.0200051 0.0200052 0.0200054 0.0200055 0.0200056 0.0200056 0.0200056 0.0200055 0.0200053 0.020005 0.0200046 0.0200041 0.0200035 0.0200027 0.0200018 0.0200007 0.0199993 0.0199978 0.019996 0.019994 0.0199917 0.0199891 0.0199862 0.019983 0.0199794 0.0199755 0.0199712 0.0199664 0.0199613 0.0199557 0.0199496 0.0199431 0.0199361 0.0199286 0.0199206 0.0199121 0.019903 0.0198934 0.0198831 0.0198723 0.019861 0.019849 0.0198363 0.0198231 0.0198092 0.0197947 0.0197796 0.0197638 0.0197474 0.0197303 0.0197126 0.0196943 0.0196753 0.0196556 0.0196354 0.0196144 0.0195929 0.0195707 0.0195478 0.0195243 0.0195002 0.0194755 0.0194501 0.0194241 0.0193975 0.0193703 0.0193425 0.0193141 0.0192851 0.0192555 0.0192254 0.0191948 0.0191637 0.0191321 0.0191001 0.0190677 0.0190349 0.0190017 0.0189683 0.0189347 0.0189008 0.0188668 0.0188328 0.0187988 0.0187648 0.018731 0.0186974 0.0186641 0.0186311 0.0185987 0.0185667 0.0185355 0.0185049 0.0184751 0.0184462 0.0184182 0.0183913 0.0183655 0.018341 0.0183176 0.0182956 0.018275 0.0182557 0.018238 0.0182217 0.018207 0.0181939 0.0181823 0.0181722 0.0181637 0.0181568 0.0181514 0.0181474 0.0181449 0.0181438 0.0181441 0.0181457 0.0181485 0.0181524 0.0181574 0.0181635 0.0181705 0.0181783 0.0181869 0.0181962 0.0182061 0.0182166 0.0182275 0.0182388 0.0182505 0.0182624 0.0182745 0.0182867 0.0182991 0.0183114 0.0183237 0.0183359 0.018348 0.01836 0.0183717 0.0183832 0.0183945 0.0184054 0.0184159 0.0184261 0.0184359 0.0184451 0.0184537 0.0184616 0.0184685 0.0184741 0.0184782 0.0184805 0.018481 0.0184796 0.0184785 0.0184777 0.0184763 0.0184734 0.0184682 0.0184602 0.0184492 0.0184344 0.0184152 0.0183911 0.0183613 0.0183249 0.0182811 0.018229 0.0181676 0.0180956 0.0180121 0.0179156 0.0178048 0.0176782 0.0175343 0.0173714 0.0171875 0.016981 0.0167529 0.0165095 0.0162503 0.0159917 0.0158043 0.0155916 0.0152823 0.0153576 0.014898 0.0143781 0.0137584 0.01315 0.0124909 0.0117621 0.0109397 0.0100153 0.00906833 0.00805523 0.0071476 0.00646418 0.00519582 0.00371544 0.00213091 0.000541285 -0.000892973 0 0 0 0 0 0 0 0 0 0 0 0 0 0 0 0 0 0 0 0 0 0 0 0 0 0 0 0 0 0 0 0 0 0 0 0 0 0 0 0 0 0 0 0 0 0 0 0 0 0 0 0 0 0 0 0 0 0 0 0 0 0 0 0 0 0 0 0 0 0 0 0 0 0 0 0 0 0 0 0 0 0 0 0 0 0 0 0 0 0 0 0 0 0 0 0 0 0 0 0 0 0 0 0 0 0 0 0 0 0 0 0 0 0 0 0 0 0 0 0 0 0 0 0 0 0 0 0 0 0 0 0 0 0 0 0 0 0 0 0 0 0 0 0 0 0 0 0 0 0 0 0 0 0 0 0 0 0 0 0 0 0 0 0 0 0 0 0 0 0 0 0 0 0 0 0 0 0 0 0 0 0 0 0 0 0 0 0 0 0 0 0 0 0 0 0 0 0 0 0 0 0 0 0 0 0 0 0 0 0 0 0 0 0 0 0 0 0 0 0 0 0 0 0 0 0 0 0 0 0 0 0 0 0 0 0 0 0 0 0 0 0 0 0 0 0 0 0 0 0 0 0 0 0 0 0 -2.1684e-19 
0.02 0.02 0.02 0.02 0.02 0.02 0.02 0.02 0.02 0.02 0.02 0.02 0.02 0.02 0.02 0.02 0.02 0.02 0.02 0.02 0.02 0.02 0.02 0.02 0.02 0.02 0.02 0.02 0.02 0.02 0.02 0.02 0.02 0.02 0.02 0.02 0.02 0.02 0.02 0.02 0.02 0.02 0.02 0.02 0.02 0.02 0.02 0.02 0.02 0.02 0.02 0.02 0.02 0.02 0.02 0.02 0.02 0.02 0.02 0.02 0.02 0.02 0.02 0.02 0.02 0.02 0.02 0.02 0.02 0.02 0.02 0.02 0.02 0.02 0.02 0.02 0.02 0.02 0.02 0.02 0.02 0.02 0.02 0.02 0.02 0.02 0.02 0.02 0.02 0.02 0.02 0.02 0.02 0.02 0.02 0.02 0.02 0.02 0.02 0.02 0.02 0.02 0.02 0.02 0.02 0.02 0.02 0.02 0.02 0.02 0.02 0.02 0.02 0.02 0.02 0.02 0.02 0.02 0.02 0.02 0.02 0.02 0.02 0.02 0.0200001 0.0200001 0.0200001 0.0200001 0.0200002 0.0200002 0.0200003 0.0200003 0.0200004 0.0200004 0.0200005 0.0200006 0.0200006 0.0200007 0.0200008 0.0200009 0.0200011 0.0200012 0.0200013 0.0200015 0.0200016 0.0200018 0.020002 0.0200022 0.0200024 0.0200026 0.0200028 0.0200031 0.0200033 0.0200036 0.0200038 0.0200041 0.0200043 0.0200046 0.0200048 0.0200051 0.0200053 0.0200055 0.0200056 0.0200058 0.0200059 0.0200059 0.0200059 0.0200058 0.0200056 0.0200054 0.020005 0.0200045 0.0200039 0.0200031 0.0200022 0.0200011 0.0199998 0.0199983 0.0199965 0.0199945 0.0199922 0.0199897 0.0199868 0.0199836 0.0199801 0.0199762 0.0199719 0.0199672 0.0199621 0.0199565 0.0199505 0.019944 0.019937 0.0199296 0.0199216 0.0199131 0.0199041 0.0198945 0.0198843 0.0198736 0.0198623 0.0198503 0.0198378 0.0198246 0.0198108 0.0197964 0.0197814 0.0197657 0.0197494 0.0197324 0.0197148 0.0196966 0.0196778 0.0196583 0.0196382 0.0196174 0.019596 0.019574 0.0195514 0.0195282 0.0195043 0.0194798 0.0194547 0.019429 0.0194027 0.0193759 0.0193484 0.0193204 0.0192918 0.0192627 0.0192331 0.019203 0.0191724 0.0191413 0.0191098 0.019078 0.0190458 0.0190133 0.0189805 0.0189475 0.0189143 0.0188811 0.0188478 0.0188145 0.0187812 0.0187482 0.0187153 0.0186828 0.0186506 0.018619 0.0185878 0.0185573 0.0185275 0.0184985 0.0184703 0.0184431 0.0184169 0.0183918 0.0183679 0.0183452 0.0183238 0.0183037 0.018285 0.0182678 0.018252 0.0182377 0.0182249 0.0182136 0.0182038 0.0181955 0.0181887 0.0181834 0.0181795 0.018177 0.0181758 0.018176 0.0181774 0.01818 0.0181837 0.0181884 0.0181941 0.0182007 0.0182082 0.0182163 0.0182252 0.0182346 0.0182446 0.018255 0.0182658 0.018277 0.0182883 0.0182999 0.0183116 0.0183233 0.0183351 0.0183468 0.0183585 0.0183701 0.0183815 0.0183926 0.0184036 0.0184142 0.0184245 0.0184345 0.018444 0.018453 0.0184613 0.018469 0.0184758 0.0184816 0.0184862 0.0184895 0.0184916 0.0184925 0.0184928 0.0184929 0.0184922 0.0184904 0.0184867 0.0184806 0.0184719 0.0184599 0.0184442 0.0184241 0.018399 0.0183682 0.0183309 0.0182862 0.0182331 0.0181708 0.018098 0.0180136 0.0179163 0.0178048 0.0176775 0.0175329 0.0173696 0.0171861 0.0169817 0.0167592 0.0165287 0.0162993 0.0160685 0.015887 0.0157399 0.0155759 0.0152469 0.0147984 0.0143086 0.0137483 0.0131369 0.0124742 0.0117341 0.0109204 0.0100357 0.00913895 0.00820807 0.00720206 0.00627656 0.00504512 0.00367607 0.00215735 0.000596221 -0.00100683 -0.00292486 -0.00499839 -0.00733448 -0.00993024 0 0 0 0 0 0 0 0 0 0 0 0 0 0 0 0 0 0 0 0 0 0 0 0 0 0 0 0 0 0 0 0 0 0 0 0 0 0 0 0 0 0 0 0 0 0 0 0 0 0 0 0 0 0 0 0 0 0 0 0 0 0 0 0 0 0 0 0 0 0 0 0 0 0 0 0 0 0 0 0 0 0 0 0 0 0 0 0 0 0 0 0 0 0 0 0 0 0 0 0 0 0 0 0 0 0 0 0 0 0 0 0 0 0 0 0 0 0 0 0 0 0 0 0 0 0 0 0 0 0 0 0 0 0 0 0 0 0 0 0 0 0 0 0 0 0 0 0 0 0 0 0 0 0 0 0 0 0 0 0 0 0 0 0 0 0 0 0 0 0 0 0 0 0 0 0 0 0 0 0 0 0 0 0 0 0 0 0 0 0 0 0 0 0 0 0 0 0 0 0 0 0 0 0 0 0 0 0 0 0 0 0 0 0 0 0 0 0 0 0 0 0 0 0 0 0 0 0 0 0 0 0 0 0 0 0 0 0 0 0 0 0 0 0 0 0 0 0 0 0 0 0 -4.33681e-19 
0.02 0.02 0.02 0.02 0.02 0.02 0.02 0.02 0.02 0.02 0.02 0.02 0.02 0.02 0.02 0.02 0.02 0.02 0.02 0.02 0.02 0.02 0.02 0.02 0.02 0.02 0.02 0.02 0.02 0.02 0.02 0.02 0.02 0.02 0.02 0.02 0.02 0.02 0.02 0.02 0.02 0.02 0.02 0.02 0.02 0.02 0.02 0.02 0.02 0.02 0.02 0.02 0.02 0.02 0.02 0.02 0.02 0.02 0.02 0.02 0.02 0.02 0.02 0.02 0.02 0.02 0.02 0.02 0.02 0.02 0.02 0.02 0.02 0.02 0.02 0.02 0.02 0.02 0.02 0.02 0.02 0.02 0.02 0.02 0.02 0.02 0.02 0.02 0.02 0.02 0.02 0.02 0.02 0.02 0.02 0.02 0.02 0.02 0.02 0.02 0.02 0.02 0.02 0.02 0.02 0.02 0.02 0.02 0.02 0.02 0.02 0.02 0.02 0.02 0.02 0.02 0.02 0.02 0.02 0.02 0.02 0.02 0.0200001 0.0200001 0.0200001 0.0200001 0.0200002 0.0200002 0.0200002 0.0200003 0.0200003 0.0200004 0.0200004 0.0200005 0.0200006 0.0200006 0.0200007 0.0200008 0.0200009 0.020001 0.0200012 0.0200013 0.0200014 0.0200016 0.0200017 0.0200019 0.0200021 0.0200023 0.0200025 0.0200028 0.020003 0.0200032 0.0200035 0.0200037 0.020004 0.0200043 0.0200045 0.0200048 0.020005 0.0200053 0.0200055 0.0200057 0.0200059 0.020006 0.0200061 0.0200062 0.0200062 0.0200061 0.0200059 0.0200057 0.0200053 0.0200049 0.0200043 0.0200035 0.0200026 0.0200015 0.0200003 0.0199988 0.0199971 0.0199951 0.0199929 0.0199903 0.0199875 0.0199844 0.0199809 0.019977 0.0199727 0.0199681 0.019963 0.0199575 0.0199515 0.0199451 0.0199382 0.0199308 0.0199229 0.0199145 0.0199055 0.019896 0.0198859 0.0198752 0.019864 0.0198522 0.0198397 0.0198267 0.019813 0.0197987 0.0197838 0.0197682 0.0197521 0.0197353 0.0197179 0.0196998 0.0196812 0.0196619 0.019642 0.0196215 0.0196004 0.0195786 0.0195563 0.0195334 0.0195098 0.0194857 0.019461 0.0194357 0.0194099 0.0193834 0.0193565 0.019329 0.0193009 0.0192724 0.0192433 0.0192138 0.0191839 0.0191535 0.0191228 0.0190917 0.0190602 0.0190285 0.0189966 0.0189644 0.0189321 0.0188998 0.0188674 0.018835 0.0188027 0.0187706 0.0187388 0.0187072 0.018676 0.0186453 0.0186152 0.0185856 0.0185568 0.0185287 0.0185015 0.0184752 0.0184499 0.0184257 0.0184026 0.0183807 0.01836 0.0183407 0.0183226 0.018306 0.0182907 0.0182769 0.0182645 0.0182536 0.0182441 0.0182361 0.0182294 0.0182242 0.0182203 0.0182178 0.0182166 0.0182166 0.0182178 0.0182201 0.0182234 0.0182278 0.0182331 0.0182393 0.0182462 0.0182539 0.0182622 0.0182711 0.0182804 0.0182902 0.0183004 0.0183109 0.0183216 0.0183325 0.0183435 0.0183546 0.0183657 0.0183768 0.0183879 0.0183987 0.0184095 0.01842 0.0184302 0.0184402 0.0184498 0.018459 0.0184677 0.0184759 0.0184834 0.0184902 0.0184961 0.0185011 0.0185052 0.0185083 0.0185106 0.0185121 0.018513 0.0185131 0.018512 0.0185094 0.0185047 0.0184976 0.0184878 0.0184747 0.0184578 0.0184366 0.0184103 0.0183783 0.0183398 0.0182939 0.0182397 0.0181762 0.0181023 0.0180168 0.0179185 0.017806 0.0176779 0.0175328 0.0173695 0.0171876 0.0169879 0.0167744 0.0165588 0.0163549 0.016162 0.0159669 0.0157851 0.0155331 0.015201 0.0147774 0.0142858 0.0137402 0.0131318 0.0124686 0.0117326 0.010939 0.0100901 0.00921745 0.00831796 0.00735823 0.00625337 0.00501539 0.00367977 0.00223011 0.000651665 -0.00100488 -0.00288167 -0.00474716 -0.00701029 -0.00955181 -0.0123487 -0.0155949 -0.0180712 0 0 0 0 0 0 0 0 0 0 0 0 0 0 0 0 0 0 0 0 0 0 0 0 0 0 0 0 0 0 0 0 0 0 0 0 0 0 0 0 0 0 0 0 0 0 0 0 0 0 0 0 0 0 0 0 0 0 0 0 0 0 0 0 0 0 0 0 0 0 0 0 0 0 0 0 0 0 0 0 0 0 0 0 0 0 0 0 0 0 0 0 0 0 0 0 0 0 0 0 0 0 0 0 0 0 0 0 0 0 0 0 0 0 0 0 0 0 0 0 0 0 0 0 0 0 0 0 0 0 0 0 0 0 0 0 0 0 0 0 0 0 0 0 0 0 0 0 0 0 0 0 0 0 0 0 0 0 0 0 0 0 0 0 0 0 0 0 0 0 0 0 0 0 0 0 0 0 0 0 0 0 0 0 0 0 0 0 0 0 0 0 0 0 0 0 0 0 0 0 0 0 0 0 0 0 0 0 0 0 0 0 0 0 0 0 0 0 0 0 0 0 0 0 0 0 0 0 0 0 0 0 0 0 0 0 0 0 0 0 0 0 0 0 0 0 0 0 -0.00485369 -4.33681e-19 
0.02 0.02 0.02 0.02 0.02 0.02 0.02 0.02 0.02 0.02 0.02 0.02 0.02 0.02 0.02 0.02 0.02 0.02 0.02 0.02 0.02 0.02 0.02 0.02 0.02 0.02 0.02 0.02 0.02 0.02 0.02 0.02 0.02 0.02 0.02 0.02 0.02 0.02 0.02 0.02 0.02 0.02 0.02 0.02 0.02 0.02 0.02 0.02 0.02 0.02 0.02 0.02 0.02 0.02 0.02 0.02 0.02 0.02 0.02 0.02 0.02 0.02 0.02 0.02 0.02 0.02 0.02 0.02 0.02 0.02 0.02 0.02 0.02 0.02 0.02 0.02 0.02 0.02 0.02 0.02 0.02 0.02 0.02 0.02 0.02 0.02 0.02 0.02 0.02 0.02 0.02 0.02 0.02 0.02 0.02 0.02 0.02 0.02 0.02 0.02 0.02 0.02 0.02 0.02 0.02 0.02 0.02 0.02 0.02 0.02 0.02 0.02 0.02 0.02 0.02 0.02 0.02 0.02 0.02 0.02 0.0200001 0.0200001 0.0200001 0.0200001 0.0200001 0.0200002 0.0200002 0.0200002 0.0200003 0.0200003 0.0200004 0.0200004 0.0200005 0.0200005 0.0200006 0.0200007 0.0200008 0.0200009 0.020001 0.0200011 0.0200012 0.0200014 0.0200015 0.0200017 0.0200019 0.020002 0.0200022 0.0200024 0.0200027 0.0200029 0.0200031 0.0200034 0.0200036 0.0200039 0.0200042 0.0200044 0.0200047 0.020005 0.0200053 0.0200055 0.0200057 0.020006 0.0200061 0.0200063 0.0200064 0.0200065 0.0200065 0.0200064 0.0200063 0.0200061 0.0200057 0.0200053 0.0200047 0.020004 0.0200031 0.0200021 0.0200008 0.0199994 0.0199977 0.0199957 0.0199936 0.0199911 0.0199883 0.0199852 0.0199818 0.0199779 0.0199738 0.0199692 0.0199641 0.0199587 0.0199528 0.0199464 0.0199396 0.0199323 0.0199245 0.0199161 0.0199072 0.0198978 0.0198878 0.0198773 0.0198662 0.0198544 0.0198421 0.0198292 0.0198157 0.0198016 0.0197868 0.0197715 0.0197555 0.0197389 0.0197217 0.0197039 0.0196855 0.0196665 0.0196469 0.0196267 0.0196059 0.0195845 0.0195626 0.01954 0.0195169 0.0194932 0.019469 0.0194442 0.0194189 0.019393 0.0193666 0.0193398 0.0193124 0.0192845 0.0192562 0.0192275 0.0191983 0.0191688 0.0191389 0.0191087 0.0190782 0.0190475 0.0190165 0.0189854 0.0189542 0.0189229 0.0188916 0.0188604 0.0188292 0.0187983 0.0187676 0.0187372 0.0187072 0.0186777 0.0186487 0.0186203 0.0185926 0.0185657 0.0185396 0.0185144 0.0184901 0.0184669 0.0184448 0.0184238 0.018404 0.0183855 0.0183682 0.0183523 0.0183376 0.0183244 0.0183125 0.0183019 0.0182928 0.018285 0.0182785 0.0182734 0.0182696 0.018267 0.0182656 0.0182654 0.0182663 0.0182683 0.0182713 0.0182752 0.01828 0.0182857 0.018292 0.0182991 0.0183068 0.018315 0.0183237 0.0183328 0.0183422 0.018352 0.0183619 0.0183721 0.0183824 0.0183927 0.0184031 0.0184135 0.0184237 0.0184339 0.0184439 0.0184537 0.0184632 0.0184724 0.0184812 0.0184896 0.0184976 0.018505 0.0185117 0.0185178 0.0185232 0.0185277 0.0185316 0.0185346 0.018537 0.0185385 0.0185392 0.0185387 0.0185368 0.018533 0.0185272 0.018519 0.0185078 0.0184934 0.0184752 0.0184525 0.0184248 0.0183914 0.0183514 0.0183041 0.0182485 0.0181837 0.0181085 0.0180218 0.0179222 0.0178086 0.0176797 0.0175343 0.017372 0.0171933 0.0170007 0.0167992 0.0165983 0.016409 0.01623 0.0160362 0.0158035 0.0155295 0.0151806 0.0147593 0.0142737 0.0137351 0.0131338 0.0124746 0.0117531 0.0109834 0.010169 0.00930765 0.00840092 0.00740589 0.00630172 0.00507909 0.00374924 0.00231332 0.000755316 -0.00095527 -0.00281382 -0.00479073 -0.00685693 -0.00939154 -0.0119709 -0.0148492 -0.0181574 -0.0223118 -0.0272352 0 0 0 0 0 0 0 0 0 0 0 0 0 0 0 0 0 0 0 0 0 0 0 0 0 0 0 0 0 0 0 0 0 0 0 0 0 0 0 0 0 0 0 0 0 0 0 0 0 0 0 0 0 0 0 0 0 0 0 0 0 0 0 0 0 0 0 0 0 0 0 0 0 0 0 0 0 0 0 0 0 0 0 0 0 0 0 0 0 0 0 0 0 0 0 0 0 0 0 0 0 0 0 0 0 0 0 0 0 0 0 0 0 0 0 0 0 0 0 0 0 0 0 0 0 0 0 0 0 0 0 0 0 0 0 0 0 0 0 0 0 0 0 0 0 0 0 0 0 0 0 0 0 0 0 0 0 0 0 0 0 0 0 0 0 0 0 0 0 0 0 0 0 0 0 0 0 0 0 0 0 0 0 0 0 0 0 0 0 0 0 0 0 0 0 0 0 0 0 0 0 0 0 0 0 0 0 0 0 0 0 0 0 0 0 0 0 0 0 0 0 0 0 0 0 0 0 0 0 0 0 0 0 0 0 0 0 0 0 0 0 0 0 0 0 -0.0172009 -0.00877523 2.1684e-19 
0.02 0.02 0.02 0.02 0.02 0.02 0.02 0.02 0.02 0.02 0.02 0.02 0.02 0.02 0.02 0.02 0.02 0.02 0.02 0.02 0.02 0.02 0.02 0.02 0.02 0.02 0.02 0.02 0.02 0.02 0.02 0.02 0.02 0.02 0.02 0.02 0.02 0.02 0.02 0.02 0.02 0.02 0.02 0.02 0.02 0.02 0.02 0.02 0.02 0.02 0.02 0.02 0.02 0.02 0.02 0.02 0.02 0.02 0.02 0.02 0.02 0.02 0.02 0.02 0.02 0.02 0.02 0.02 0.02 0.02 0.02 0.02 0.02 0.02 0.02 0.02 0.02 0.02 0.02 0.02 0.02 0.02 0.02 0.02 0.02 0.02 0.02 0.02 0.02 0.02 0.02 0.02 0.02 0.02 0.02 0.02 0.02 0.02 0.02 0.02 0.02 0.02 0.02 0.02 0.02 0.02 0.02 0.02 0.02 0.02 0.02 0.02 0.02 0.02 0.02 0.02 0.02 0.02 0.0200001 0.0200001 0.0200001 0.0200001 0.0200001 0.0200002 0.0200002 0.0200002 0.0200002 0.0200003 0.0200003 0.0200004 0.0200004 0.0200005 0.0200005 0.0200006 0.0200007 0.0200008 0.0200009 0.020001 0.0200011 0.0200012 0.0200013 0.0200015 0.0200016 0.0200018 0.020002 0.0200022 0.0200024 0.0200026 0.0200028 0.020003 0.0200033 0.0200035 0.0200038 0.0200041 0.0200044 0.0200046 0.0200049 0.0200052 0.0200055 0.0200057 0.020006 0.0200062 0.0200064 0.0200066 0.0200067 0.0200068 0.0200068 0.0200068 0.0200066 0.0200064 0.0200061 0.0200057 0.0200051 0.0200045 0.0200036 0.0200026 0.0200014 0.02 0.0199983 0.0199964 0.0199943 0.0199919 0.0199892 0.0199861 0.0199828 0.019979 0.0199749 0.0199704 0.0199655 0.0199601 0.0199543 0.019948 0.0199413 0.019934 0.0199263 0.0199181 0.0199093 0.0199 0.0198902 0.0198797 0.0198688 0.0198572 0.0198451 0.0198323 0.019819 0.0198051 0.0197905 0.0197754 0.0197597 0.0197434 0.0197264 0.0197089 0.0196908 0.0196722 0.0196529 0.0196331 0.0196127 0.0195917 0.0195702 0.0195481 0.0195255 0.0195024 0.0194787 0.0194545 0.0194298 0.0194046 0.0193789 0.0193528 0.0193262 0.0192992 0.0192717 0.0192439 0.0192157 0.0191871 0.0191582 0.0191291 0.0190997 0.01907 0.0190403 0.0190103 0.0189803 0.0189503 0.0189203 0.0188904 0.0188606 0.0188309 0.0188016 0.0187726 0.018744 0.0187158 0.0186881 0.0186611 0.0186347 0.0186091 0.0185843 0.0185603 0.0185372 0.0185152 0.0184941 0.0184742 0.0184554 0.0184378 0.0184213 0.0184061 0.0183922 0.0183795 0.0183682 0.0183581 0.0183493 0.0183417 0.0183354 0.0183304 0.0183266 0.0183239 0.0183224 0.0183219 0.0183225 0.0183241 0.0183267 0.0183301 0.0183344 0.0183394 0.0183452 0.0183516 0.0183585 0.018366 0.0183739 0.0183823 0.018391 0.0183999 0.0184091 0.0184185 0.018428 0.0184376 0.0184471 0.0184567 0.0184662 0.0184756 0.0184848 0.0184938 0.0185026 0.0185111 0.0185192 0.0185269 0.0185341 0.0185408 0.018547 0.0185525 0.0185574 0.0185617 0.0185652 0.018568 0.0185699 0.018571 0.0185708 0.0185694 0.0185663 0.0185613 0.0185541 0.0185445 0.0185319 0.0185159 0.0184961 0.0184719 0.0184425 0.0184075 0.0183659 0.018317 0.0182598 0.0181934 0.0181167 0.0180285 0.0179277 0.0178129 0.0176833 0.0175383 0.017378 0.0172042 0.0170204 0.0168313 0.0166425 0.0164585 0.0162757 0.0160788 0.0158379 0.0155362 0.0151711 0.0147484 0.0142693 0.0137354 0.0131427 0.0124935 0.0117909 0.0110424 0.0102512 0.0094045 0.00848784 0.0074905 0.00638958 0.0051795 0.00386147 0.00243166 0.000874044 -0.000830716 -0.00269037 -0.00472076 -0.00691187 -0.00928136 -0.0118762 -0.0147041 -0.0177942 -0.0203643 -0.025426 -0.0311199 -0.0357697 0 0 0 0 0 0 0 0 0 0 0 0 0 0 0 0 0 0 0 0 0 0 0 0 0 0 0 0 0 0 0 0 0 0 0 0 0 0 0 0 0 0 0 0 0 0 0 0 0 0 0 0 0 0 0 0 0 0 0 0 0 0 0 0 0 0 0 0 0 0 0 0 0 0 0 0 0 0 0 0 0 0 0 0 0 0 0 0 0 0 0 0 0 0 0 0 0 0 0 0 0 0 0 0 0 0 0 0 0 0 0 0 0 0 0 0 0 0 0 0 0 0 0 0 0 0 0 0 0 0 0 0 0 0 0 0 0 0 0 0 0 0 0 0 0 0 0 0 0 0 0 0 0 0 0 0 0 0 0 0 0 0 0 0 0 0 0 0 0 0 0 0 0 0 0 0 0 0 0 0 0 0 0 0 0 0 0 0 0 0 0 0 0 0 0 0 0 0 0 0 0 0 0 0 0 0 0 0 0 0 0 0 0 0 0 0 0 0 0 0 0 0 0 0 0 0 0 0 0 0 0 0 0 0 0 0 0 0 0 0 0 -0.0354724 -0.0297128 -0.0213951 -0.011694 -3.68629e-18 