# vtk DataFile Version 2.0
iteration 567
ASCII

DATASET STRUCTURED_POINTS
DIMENSIONS 621 64 1
ORIGIN 0 0 0
SPACING 0.00161031 0.00161031 0.00161031

POINT_DATA 39744
SCALARS P float 1
LOOKUP_TABLE default
0 0 0 0 0 0 0 0 0 0 0 0 0 0 0 0 0 0 0 0 0 0 0 0 0 0 0 0 0 0 0 0 0 0 0 0 0 0 0 0 0 0 0 0 0 0 0 0 0 0 0 0 0 0 0 0 0 0 0 0 0 0 0 0 0 0 0 0 0 0 0 0 0 0 0 0 0 0 0 0 0 0 0 0 0 0 0 0 0 0 0 0 0 0 0 0 0 0 0 0 0 0 0 0 0 0 0 0 0 0 0 0 0 0 0 0 0 0 0 0 0 0 0 0 0 0 0 0 0 0 0 0 0 0 0 0 0 0 0 0 0 0 0 0 0 0 0 0 0 0 0 0 0 0 0 0 0 0 0 0 0 0 0 0 0 0 0 0 0 0 0 0 0 0 0 0 0 0 0 0 0 0 0 0 0 0 0 0 0 0 0 0 0 0 0 0 0 0 0 0 0 0 0 0 0 0 0 0 0 0 0 0 0 0 0 0 0 0 0 0 0 0 0 0 0 0 0 0 0 0 0 0 0 0 0 0 0 0 0 0 0 0 0 0 0 0 0 0 0 0 0 0 0 0 0 0 0 0 0 0 0 0 0 0 0 0 0 0 0 0 0 0 0 0 0 0 0 0 0 0 0 0 0 0 0 0 0 0 0 0 0 0 0 0 0 0 0 0 0 0 0 0 0 0 0 0 0 0 0 0 0 0 0 0 0 0 0 0 0 0 0 0 0 0 0 0 0 0 0 0 0 0 0 0 0 0 0 0 0 0 0 0 0 0 0 0 0 0 0 0 0 0 0 0 0 0 0 0 0 0 0 0 0 0 0 0 0 0 0 0 0 0 0 0 0 0 0 0 0 0 0 0 0 0 0 0 0 0 0 0 0 0 0 0 0 0 0 0 0 0 0 0 0 0 0 0 0 0 0 0 0 0 0 0 0 0 0 0 0 0 0 0 0 0 0 0 0 0 0 0 0 0 0 0 0 0 0 0 0 0 0 0 0 0 0 0 0 0 0 0 0 0 0 0 0 0 0 0 0 0 0 0 0 0 0 0 0 0 0 0 0 0 0 0 0 0 0 0 0 0 0 0 0 0 0 0 0 0 0 0 0 0 0 0 0 0 0 0 0 0 0 0 0 0 0 0 0 0 0 0 0 0 0 0 0 0 0 0 0 0 0 0 0 0 0 0 0 0 0 0 0 0 0 0 0 0 0 0 0 0 0 0 0 0 0 0 0 0 0 0 0 0 0 0 0 0 0 0 0 0 0 0 0 0 0 0 0 0 0 0 0 0 0 0 0 0 0 0 0 0 0 0 0 0 0 0 0 0 0 0 0 0 0 0 0 0 0 0 0 0 0 0 0 0 0 0 0 0 0 0 0 0 0 0 0 0 0 0 0 0 0 
0.02 0.02 0.02 0.02 0.02 0.0200001 0.0200001 0.0200001 0.0200002 0.0200002 0.0200003 0.0200003 0.0200004 0.0200005 0.0200007 0.0200008 0.020001 0.0200012 0.0200015 0.0200018 0.0200021 0.0200026 0.0200031 0.0200036 0.0200043 0.0200051 0.0200059 0.0200069 0.020008 0.0200093 0.0200108 0.0200124 0.0200142 0.0200162 0.0200184 0.0200209 0.0200237 0.0200267 0.0200301 0.0200338 0.020038 0.0200425 0.0200476 0.0200531 0.0200593 0.020066 0.0200735 0.0200818 0.020091 0.0201011 0.0201122 0.0201244 0.0201379 0.0201526 0.0201688 0.0201864 0.0202055 0.0202263 0.0202488 0.0202731 0.0202992 0.0203272 0.020357 0.0203888 0.0204225 0.0204581 0.0204956 0.0205348 0.0205757 0.0206181 0.0206618 0.0207067 0.0207524 0.0207987 0.0208452 0.0208916 0.0209374 0.0209822 0.0210255 0.0210668 0.0211056 0.0211413 0.0211733 0.0212008 0.021223 0.0212392 0.0212481 0.0212485 0.0212389 0.0212174 0.0211817 0.0211289 0.021056 0.0209592 0.0208345 0.0206779 0.0204848 0.0202506 0.0199701 0.0196377 0.0192474 0.0187927 0.018268 0.0176708 0.0170078 0.0163026 0.0156205 0.015277 0.0174822 0 0 0 0 0 0 0 0 0 0 0 0 0 0 0 0 0 0 0 0 0 0 0 0 0 0 0 0 0 0 0 0 0 0 0 0 0 0 0 0 0 0 0 0 0 0 0 0 0 0 0 0 0 0 0 0 0 0 0 0 0 0 0 0 0 0 0 0 0 0 0 0 0 0 0 0 0 0 0 0 0 0 0 0 0 0 0 0 0 0 0 0 0 0 0 0 0 0 0 0 0 0 0 0 0 0 0 0 0 0 0 0 0 0 0 0 0 0 0 0 0 0 0 0 0 0 0 0 0 0 0 0 0 0 0 0 0 0 0 0 0 0 0 0 0 0 0 0 0 0 0 0 0 0 0 0 0 0 0 0 0 0 0 0 0 0 0 0 0 0 0 0 0 0 0 0 0 0 0 0 0 0 0 0 0 0 0 0 0 0 0 0 0 0 0 0 0 0 0 0 0 0 0 0 0 0 0 0 0 0 0 0 0 0 0 0 0 0 0 0 0 0 0 0 0 0 0 0 0 0 0 0 0 0 0 0 0 0 0 0 0 0 0 0 0 0 0 0 0 0 0 0 0 0 0 0 0 0 0 0 0 0 0 0 0 0 0 0 0 0 0 0 0 0 0 0 0 0 0 0 0 0 0 0 0 0 0 0 0 0 0 0 0 0 0 0 0 0 0 0 0 0 0 0 0 0 0 0 0 0 0 0 0 0 0 0 0 0 0 0 0 0 0 0 0 0 0 0 0 0 0 0 0 0 0 0 0 0 0 0 0 0 0 0 0 0 0 0 0 0 0 0 0 0 0 0 0 0 0 0 0 0 0 0 0 0 0 0 0 0 0 0 0 0 0 0 0 0 0 0 0 0 0 0 0 0 0 0 0 0 0 0 0 0 0 0 0 0 0 0 0 0 0 0 0 0 0 0 0 0 0 0 0 0 0 0 0 0 0 0 0 0 0 0 0 0 0 0 0 0 0 0 0 0 0 0 0 0 0 0 0 0 0 0 0 0 0 0 0 0 0 0 0 0 0 0 0 0 0 0 0 0 0 0 0 0 0 0 0 0 0 0 0 0 0 0 0 0 0 0 0 0 0 0 0 0 0 0 0 0 0 0 0 0 0 0 0 0 0 0 0 0 0 0 0 0 0 0 0 0 0 0 
0.02 0.02 0.02 0.02 0.02 0.0200001 0.0200001 0.0200001 0.0200002 0.0200002 0.0200003 0.0200003 0.0200004 0.0200005 0.0200006 0.0200008 0.020001 0.0200012 0.0200014 0.0200018 0.0200021 0.0200025 0.020003 0.0200036 0.0200042 0.020005 0.0200058 0.0200068 0.0200079 0.0200092 0.0200106 0.0200122 0.020014 0.020016 0.0200182 0.0200206 0.0200234 0.0200264 0.0200297 0.0200334 0.0200374 0.0200419 0.0200469 0.0200523 0.0200584 0.0200651 0.0200725 0.0200806 0.0200896 0.0200996 0.0201106 0.0201226 0.0201359 0.0201504 0.0201663 0.0201837 0.0202026 0.0202231 0.0202453 0.0202693 0.0202951 0.0203227 0.0203523 0.0203837 0.0204171 0.0204524 0.0204895 0.0205284 0.0205689 0.020611 0.0206545 0.0206991 0.0207447 0.0207908 0.0208373 0.0208836 0.0209295 0.0209745 0.021018 0.0210597 0.021099 0.0211352 0.0211678 0.0211961 0.0212192 0.0212363 0.0212463 0.0212478 0.0212394 0.0212191 0.0211846 0.0211331 0.0210613 0.0209655 0.0208419 0.0206862 0.0204939 0.0202603 0.0199803 0.0196483 0.0192582 0.0188038 0.018279 0.0176816 0.0170209 0.0163281 0.0156839 0.0152348 0.0151049 0.0143858 0.0135899 0.0127988 0.0118617 0.0130622 0 0 0 0 0 0 0 0 0 0 0 0 0 0 0 0 0 0 0 0 0 0 0 0 0 0 0 0 0 0 0 0 0 0 0 0 0 0 0 0 0 0 0 0 0 0 0 0 0 0 0 0 0 0 0 0 0 0 0 0 0 0 0 0 0 0 0 0 0 0 0 0 0 0 0 0 0 0 0 0 0 0 0 0 0 0 0 0 0 0 0 0 0 0 0 0 0 0 0 0 0 0 0 0 0 0 0 0 0 0 0 0 0 0 0 0 0 0 0 0 0 0 0 0 0 0 0 0 0 0 0 0 0 0 0 0 0 0 0 0 0 0 0 0 0 0 0 0 0 0 0 0 0 0 0 0 0 0 0 0 0 0 0 0 0 0 0 0 0 0 0 0 0 0 0 0 0 0 0 0 0 0 0 0 0 0 0 0 0 0 0 0 0 0 0 0 0 0 0 0 0 0 0 0 0 0 0 0 0 0 0 0 0 0 0 0 0 0 0 0 0 0 0 0 0 0 0 0 0 0 0 0 0 0 0 0 0 0 0 0 0 0 0 0 0 0 0 0 0 0 0 0 0 0 0 0 0 0 0 0 0 0 0 0 0 0 0 0 0 0 0 0 0 0 0 0 0 0 0 0 0 0 0 0 0 0 0 0 0 0 0 0 0 0 0 0 0 0 0 0 0 0 0 0 0 0 0 0 0 0 0 0 0 0 0 0 0 0 0 0 0 0 0 0 0 0 0 0 0 0 0 0 0 0 0 0 0 0 0 0 0 0 0 0 0 0 0 0 0 0 0 0 0 0 0 0 0 0 0 0 0 0 0 0 0 0 0 0 0 0 0 0 0 0 0 0 0 0 0 0 0 0 0 0 0 0 0 0 0 0 0 0 0 0 0 0 0 0 0 0 0 0 0 0 0 0 0 0 0 0 0 0 0 0 0 0 0 0 0 0 0 0 0 0 0 0 0 0 0 0 0 0 0 0 0 0 0 0 0 0 0 0 0 0 0 0 0 0 0 0 0 0 0 0 0 0 0 0 0 0 0 0 0 0 0 0 0 0 0 0 0 0 0 0 0 0 0 0 0 0 0 0 0 0 0 0 0 0 0 0 0 0 0 0 0 0 0 0 0 0 0 0 0 0 0 0 0 
0.02 0.02 0.02 0.02 0.02 0.0200001 0.0200001 0.0200001 0.0200002 0.0200002 0.0200003 0.0200003 0.0200004 0.0200005 0.0200006 0.0200008 0.020001 0.0200012 0.0200014 0.0200017 0.0200021 0.0200025 0.020003 0.0200035 0.0200042 0.0200049 0.0200058 0.0200067 0.0200078 0.0200091 0.0200105 0.0200121 0.0200138 0.0200158 0.020018 0.0200204 0.020023 0.020026 0.0200293 0.0200329 0.0200369 0.0200413 0.0200462 0.0200515 0.0200575 0.0200641 0.0200713 0.0200793 0.0200882 0.0200979 0.0201087 0.0201206 0.0201336 0.0201479 0.0201635 0.0201806 0.0201992 0.0202194 0.0202412 0.0202648 0.0202902 0.0203175 0.0203466 0.0203777 0.0204106 0.0204454 0.0204821 0.0205206 0.0205607 0.0206025 0.0206456 0.0206899 0.0207352 0.0207812 0.0208275 0.0208739 0.0209198 0.0209649 0.0210088 0.0210509 0.0210907 0.0211276 0.0211611 0.0211903 0.0212146 0.0212329 0.0212442 0.0212472 0.0212403 0.0212215 0.0211883 0.021138 0.0210671 0.0209721 0.0208488 0.0206929 0.0205 0.0202652 0.0199837 0.0196496 0.0192573 0.0188005 0.0182742 0.0176775 0.0170234 0.0163537 0.0157502 0.0152739 0.0148716 0.0142273 0.0135133 0.0126386 0.0118063 0.0116552 0.01288 0 0 0 0 0 0 0 0 0 0 0 0 0 0 0 0 0 0 0 0 0 0 0 0 0 0 0 0 0 0 0 0 0 0 0 0 0 0 0 0 0 0 0 0 0 0 0 0 0 0 0 0 0 0 0 0 0 0 0 0 0 0 0 0 0 0 0 0 0 0 0 0 0 0 0 0 0 0 0 0 0 0 0 0 0 0 0 0 0 0 0 0 0 0 0 0 0 0 0 0 0 0 0 0 0 0 0 0 0 0 0 0 0 0 0 0 0 0 0 0 0 0 0 0 0 0 0 0 0 0 0 0 0 0 0 0 0 0 0 0 0 0 0 0 0 0 0 0 0 0 0 0 0 0 0 0 0 0 0 0 0 0 0 0 0 0 0 0 0 0 0 0 0 0 0 0 0 0 0 0 0 0 0 0 0 0 0 0 0 0 0 0 0 0 0 0 0 0 0 0 0 0 0 0 0 0 0 0 0 0 0 0 0 0 0 0 0 0 0 0 0 0 0 0 0 0 0 0 0 0 0 0 0 0 0 0 0 0 0 0 0 0 0 0 0 0 0 0 0 0 0 0 0 0 0 0 0 0 0 0 0 0 0 0 0 0 0 0 0 0 0 0 0 0 0 0 0 0 0 0 0 0 0 0 0 0 0 0 0 0 0 0 0 0 0 0 0 0 0 0 0 0 0 0 0 0 0 0 0 0 0 0 0 0 0 0 0 0 0 0 0 0 0 0 0 0 0 0 0 0 0 0 0 0 0 0 0 0 0 0 0 0 0 0 0 0 0 0 0 0 0 0 0 0 0 0 0 0 0 0 0 0 0 0 0 0 0 0 0 0 0 0 0 0 0 0 0 0 0 0 0 0 0 0 0 0 0 0 0 0 0 0 0 0 0 0 0 0 0 0 0 0 0 0 0 0 0 0 0 0 0 0 0 0 0 0 0 0 0 0 0 0 0 0 0 0 0 0 0 0 0 0 0 0 0 0 0 0 0 0 0 0 0 0 0 0 0 0 0 0 0 0 0 0 0 0 0 0 0 0 0 0 0 0 0 0 0 0 0 0 0 0 0 0 0 0 0 0 0 0 0 0 0 0 0 0 0 0 0 0 0 0 0 0 0 0 0 0 0 0 0 0 0 0 0 -2.71051e-20 
0.02 0.02 0.02 0.02 0.02 0.0200001 0.0200001 0.0200001 0.0200002 0.0200002 0.0200003 0.0200003 0.0200004 0.0200005 0.0200006 0.0200008 0.020001 0.0200012 0.0200014 0.0200017 0.0200021 0.0200025 0.0200029 0.0200035 0.0200041 0.0200049 0.0200057 0.0200066 0.0200077 0.020009 0.0200103 0.0200119 0.0200136 0.0200155 0.0200177 0.02002 0.0200227 0.0200255 0.0200288 0.0200323 0.0200362 0.0200405 0.0200453 0.0200505 0.0200563 0.0200627 0.0200698 0.0200776 0.0200863 0.0200958 0.0201063 0.0201179 0.0201306 0.0201445 0.0201598 0.0201765 0.0201947 0.0202144 0.0202358 0.0202589 0.0202838 0.0203105 0.0203391 0.0203695 0.0204018 0.0204361 0.0204721 0.02051 0.0205496 0.0205907 0.0206333 0.0206771 0.020722 0.0207676 0.0208137 0.0208599 0.0209058 0.020951 0.0209951 0.0210376 0.021078 0.0211158 0.0211502 0.0211806 0.0212062 0.021226 0.021239 0.0212438 0.0212386 0.0212215 0.0211899 0.021141 0.0210713 0.0209769 0.0208536 0.0206973 0.0205032 0.0202666 0.0199825 0.0196455 0.0192498 0.0187904 0.0182632 0.0176697 0.0170267 0.0163802 0.0157908 0.0152826 0.014785 0.0141729 0.0135376 0.0128982 0.0120018 0.0112907 0.00983985 0.008544 0 0 0 0 0 0 0 0 0 0 0 0 0 0 0 0 0 0 0 0 0 0 0 0 0 0 0 0 0 0 0 0 0 0 0 0 0 0 0 0 0 0 0 0 0 0 0 0 0 0 0 0 0 0 0 0 0 0 0 0 0 0 0 0 0 0 0 0 0 0 0 0 0 0 0 0 0 0 0 0 0 0 0 0 0 0 0 0 0 0 0 0 0 0 0 0 0 0 0 0 0 0 0 0 0 0 0 0 0 0 0 0 0 0 0 0 0 0 0 0 0 0 0 0 0 0 0 0 0 0 0 0 0 0 0 0 0 0 0 0 0 0 0 0 0 0 0 0 0 0 0 0 0 0 0 0 0 0 0 0 0 0 0 0 0 0 0 0 0 0 0 0 0 0 0 0 0 0 0 0 0 0 0 0 0 0 0 0 0 0 0 0 0 0 0 0 0 0 0 0 0 0 0 0 0 0 0 0 0 0 0 0 0 0 0 0 0 0 0 0 0 0 0 0 0 0 0 0 0 0 0 0 0 0 0 0 0 0 0 0 0 0 0 0 0 0 0 0 0 0 0 0 0 0 0 0 0 0 0 0 0 0 0 0 0 0 0 0 0 0 0 0 0 0 0 0 0 0 0 0 0 0 0 0 0 0 0 0 0 0 0 0 0 0 0 0 0 0 0 0 0 0 0 0 0 0 0 0 0 0 0 0 0 0 0 0 0 0 0 0 0 0 0 0 0 0 0 0 0 0 0 0 0 0 0 0 0 0 0 0 0 0 0 0 0 0 0 0 0 0 0 0 0 0 0 0 0 0 0 0 0 0 0 0 0 0 0 0 0 0 0 0 0 0 0 0 0 0 0 0 0 0 0 0 0 0 0 0 0 0 0 0 0 0 0 0 0 0 0 0 0 0 0 0 0 0 0 0 0 0 0 0 0 0 0 0 0 0 0 0 0 0 0 0 0 0 0 0 0 0 0 0 0 0 0 0 0 0 0 0 0 0 0 0 0 0 0 0 0 0 0 0 0 0 0 0 0 0 0 0 0 0 0 0 0 0 0 0 0 0 0 0 0 0 0 0 0 0 0 0 0 0 0 0 0 0 0 0 0 0 0 0 0 0 0 0 0 0 0 0 0 0 0 -0.00410415 -2.1684e-19 
0.02 0.02 0.02 0.02 0.02 0.0200001 0.0200001 0.0200001 0.0200001 0.0200002 0.0200002 0.0200003 0.0200004 0.0200005 0.0200006 0.0200008 0.0200009 0.0200011 0.0200014 0.0200017 0.020002 0.0200024 0.0200029 0.0200034 0.020004 0.0200048 0.0200056 0.0200065 0.0200076 0.0200088 0.0200101 0.0200116 0.0200133 0.0200152 0.0200173 0.0200196 0.0200221 0.020025 0.0200281 0.0200315 0.0200353 0.0200395 0.0200441 0.0200492 0.0200548 0.020061 0.0200679 0.0200755 0.0200838 0.0200931 0.0201032 0.0201144 0.0201268 0.0201403 0.0201551 0.0201713 0.0201889 0.0202081 0.0202289 0.0202513 0.0202755 0.0203015 0.0203293 0.020359 0.0203905 0.0204239 0.0204592 0.0204962 0.020535 0.0205753 0.0206172 0.0206603 0.0207046 0.0207496 0.0207952 0.0208411 0.0208868 0.0209321 0.0209763 0.0210192 0.0210602 0.0210988 0.0211343 0.021166 0.0211931 0.0212147 0.0212295 0.0212363 0.0212332 0.0212181 0.0211885 0.0211412 0.0210727 0.0209791 0.020856 0.0206991 0.0205037 0.0202651 0.0199782 0.0196379 0.0192391 0.0187778 0.0182522 0.0176666 0.0170397 0.016411 0.0158237 0.0152822 0.0147391 0.0141424 0.0135463 0.0130174 0.0123322 0.0115811 0.00904824 0.0066066 0 0 0 0 0 0 0 0 0 0 0 0 0 0 0 0 0 0 0 0 0 0 0 0 0 0 0 0 0 0 0 0 0 0 0 0 0 0 0 0 0 0 0 0 0 0 0 0 0 0 0 0 0 0 0 0 0 0 0 0 0 0 0 0 0 0 0 0 0 0 0 0 0 0 0 0 0 0 0 0 0 0 0 0 0 0 0 0 0 0 0 0 0 0 0 0 0 0 0 0 0 0 0 0 0 0 0 0 0 0 0 0 0 0 0 0 0 0 0 0 0 0 0 0 0 0 0 0 0 0 0 0 0 0 0 0 0 0 0 0 0 0 0 0 0 0 0 0 0 0 0 0 0 0 0 0 0 0 0 0 0 0 0 0 0 0 0 0 0 0 0 0 0 0 0 0 0 0 0 0 0 0 0 0 0 0 0 0 0 0 0 0 0 0 0 0 0 0 0 0 0 0 0 0 0 0 0 0 0 0 0 0 0 0 0 0 0 0 0 0 0 0 0 0 0 0 0 0 0 0 0 0 0 0 0 0 0 0 0 0 0 0 0 0 0 0 0 0 0 0 0 0 0 0 0 0 0 0 0 0 0 0 0 0 0 0 0 0 0 0 0 0 0 0 0 0 0 0 0 0 0 0 0 0 0 0 0 0 0 0 0 0 0 0 0 0 0 0 0 0 0 0 0 0 0 0 0 0 0 0 0 0 0 0 0 0 0 0 0 0 0 0 0 0 0 0 0 0 0 0 0 0 0 0 0 0 0 0 0 0 0 0 0 0 0 0 0 0 0 0 0 0 0 0 0 0 0 0 0 0 0 0 0 0 0 0 0 0 0 0 0 0 0 0 0 0 0 0 0 0 0 0 0 0 0 0 0 0 0 0 0 0 0 0 0 0 0 0 0 0 0 0 0 0 0 0 0 0 0 0 0 0 0 0 0 0 0 0 0 0 0 0 0 0 0 0 0 0 0 0 0 0 0 0 0 0 0 0 0 0 0 0 0 0 0 0 0 0 0 0 0 0 0 0 0 0 0 0 0 0 0 0 0 0 0 0 0 0 0 0 0 0 0 0 0 0 0 0 0 0 0 0 0 0 0 0 0 0 0 0 0 0 0 0 0 0 0 0 0 0 0 0 -0.0131274 -0.00683856 4.33681e-19 
0.02 0.02 0.02 0.02 0.02 0.0200001 0.0200001 0.0200001 0.0200001 0.0200002 0.0200002 0.0200003 0.0200004 0.0200005 0.0200006 0.0200007 0.0200009 0.0200011 0.0200014 0.0200016 0.020002 0.0200024 0.0200028 0.0200033 0.020004 0.0200046 0.0200054 0.0200064 0.0200074 0.0200086 0.0200099 0.0200113 0.020013 0.0200148 0.0200168 0.020019 0.0200215 0.0200242 0.0200272 0.0200305 0.0200342 0.0200382 0.0200427 0.0200475 0.0200529 0.0200589 0.0200655 0.0200728 0.0200808 0.0200897 0.0200994 0.0201102 0.020122 0.020135 0.0201493 0.0201648 0.0201818 0.0202003 0.0202203 0.020242 0.0202653 0.0202904 0.0203173 0.020346 0.0203766 0.020409 0.0204432 0.0204792 0.020517 0.0205563 0.0205972 0.0206394 0.0206828 0.0207271 0.0207721 0.0208174 0.0208628 0.0209079 0.0209523 0.0209955 0.021037 0.0210764 0.0211129 0.021146 0.0211748 0.0211982 0.0212152 0.0212242 0.0212234 0.0212107 0.0211832 0.0211379 0.021071 0.0209784 0.0208558 0.0206986 0.0205021 0.0202617 0.0199724 0.0196295 0.0192288 0.0187681 0.0182481 0.0176749 0.0170655 0.0164487 0.0158546 0.0152847 0.0147114 0.0141069 0.0134945 0.0129332 0.012292 0.0114809 0.00720375 0.00387708 0 0 0 0 0 0 0 0 0 0 0 0 0 0 0 0 0 0 0 0 0 0 0 0 0 0 0 0 0 0 0 0 0 0 0 0 0 0 0 0 0 0 0 0 0 0 0 0 0 0 0 0 0 0 0 0 0 0 0 0 0 0 0 0 0 0 0 0 0 0 0 0 0 0 0 0 0 0 0 0 0 0 0 0 0 0 0 0 0 0 0 0 0 0 0 0 0 0 0 0 0 0 0 0 0 0 0 0 0 0 0 0 0 0 0 0 0 0 0 0 0 0 0 0 0 0 0 0 0 0 0 0 0 0 0 0 0 0 0 0 0 0 0 0 0 0 0 0 0 0 0 0 0 0 0 0 0 0 0 0 0 0 0 0 0 0 0 0 0 0 0 0 0 0 0 0 0 0 0 0 0 0 0 0 0 0 0 0 0 0 0 0 0 0 0 0 0 0 0 0 0 0 0 0 0 0 0 0 0 0 0 0 0 0 0 0 0 0 0 0 0 0 0 0 0 0 0 0 0 0 0 0 0 0 0 0 0 0 0 0 0 0 0 0 0 0 0 0 0 0 0 0 0 0 0 0 0 0 0 0 0 0 0 0 0 0 0 0 0 0 0 0 0 0 0 0 0 0 0 0 0 0 0 0 0 0 0 0 0 0 0 0 0 0 0 0 0 0 0 0 0 0 0 0 0 0 0 0 0 0 0 0 0 0 0 0 0 0 0 0 0 0 0 0 0 0 0 0 0 0 0 0 0 0 0 0 0 0 0 0 0 0 0 0 0 0 0 0 0 0 0 0 0 0 0 0 0 0 0 0 0 0 0 0 0 0 0 0 0 0 0 0 0 0 0 0 0 0 0 0 0 0 0 0 0 0 0 0 0 0 0 0 0 0 0 0 0 0 0 0 0 0 0 0 0 0 0 0 0 0 0 0 0 0 0 0 0 0 0 0 0 0 0 0 0 0 0 0 0 0 0 0 0 0 0 0 0 0 0 0 0 0 0 0 0 0 0 0 0 0 0 0 0 0 0 0 0 0 0 0 0 0 0 0 0 0 0 0 0 0 0 0 0 0 0 0 0 0 0 0 0 0 0 0 0 0 0 0 0 0 0 0 0 0 0 0 0 0 0 0 -0.0283751 -0.0242998 -0.0173081 -0.0094209 1.0842e-18 
0.02 0.02 0.02 0.02 0.02 0.0200001 0.0200001 0.0200001 0.0200001 0.0200002 0.0200002 0.0200003 0.0200004 0.0200005 0.0200006 0.0200007 0.0200009 0.0200011 0.0200013 0.0200016 0.0200019 0.0200023 0.0200027 0.0200032 0.0200038 0.0200045 0.0200053 0.0200062 0.0200072 0.0200083 0.0200096 0.020011 0.0200125 0.0200143 0.0200162 0.0200184 0.0200207 0.0200233 0.0200262 0.0200294 0.0200329 0.0200367 0.0200409 0.0200456 0.0200507 0.0200564 0.0200626 0.0200695 0.0200772 0.0200856 0.0200949 0.0201051 0.0201164 0.0201288 0.0201423 0.0201572 0.0201734 0.020191 0.0202101 0.0202309 0.0202532 0.0202773 0.0203031 0.0203307 0.0203601 0.0203913 0.0204243 0.020459 0.0204956 0.0205337 0.0205734 0.0206145 0.0206568 0.0207001 0.0207443 0.020789 0.0208338 0.0208786 0.0209229 0.0209663 0.0210083 0.0210484 0.0210861 0.0211205 0.021151 0.0211764 0.0211956 0.0212071 0.0212088 0.0211987 0.0211737 0.0211307 0.0210657 0.0209746 0.0208528 0.0206958 0.020499 0.0202576 0.0199671 0.0196236 0.0192237 0.0187669 0.0182557 0.0176971 0.0171037 0.0164954 0.0158907 0.0152951 0.014688 0.0140493 0.0133809 0.0126802 0.0119469 0.0106552 0.00750274 0.0037034 0.0041862 0 0 0 0 0 0 0 0 0 0 -0.0231597 -0.0440125 0 0 0 0 0 0 0 0 0 0 0 0 0 0 0 0 0 0 0 0 0 0 0 0 0 0 0 0 0 0 0 0 0 0 0 0 0 0 0 0 0 0 0 0 0 0 0 0 0 0 0 0 0 0 0 0 0 0 0 0 0 0 0 0 0 0 0 0 0 0 0 0 0 0 0 0 0 0 0 0 0 0 0 0 0 0 0 0 0 0 0 0 0 0 0 0 0 0 0 0 0 0 0 0 0 0 0 0 0 0 0 0 0 0 0 0 0 0 0 0 0 0 0 0 0 0 0 0 0 0 0 0 0 0 0 0 0 0 0 0 0 0 0 0 0 0 0 0 0 0 0 0 0 0 0 0 0 0 0 0 0 0 0 0 0 0 0 0 0 0 0 0 0 0 0 0 0 0 0 0 0 0 0 0 0 0 0 0 0 0 0 0 0 0 0 0 0 0 0 0 0 0 0 0 0 0 0 0 0 0 0 0 0 0 0 0 0 0 0 0 0 0 0 0 0 0 0 0 0 0 0 0 0 0 0 0 0 0 0 0 0 0 0 0 0 0 0 0 0 0 0 0 0 0 0 0 0 0 0 0 0 0 0 0 0 0 0 0 0 0 0 0 0 0 0 0 0 0 0 0 0 0 0 0 0 0 0 0 0 0 0 0 0 0 0 0 0 0 0 0 -0.0395408 -0.0417373 -0.0500974 0 0 0 0 0 0 0 0 0 0 0 0 0 0 0 0 0 0 0 0 0 0 0 0 0 0 0 0 0 0 0 0 0 0 0 0 0 0 0 0 0 0 0 0 0 0 0 0 0 0 0 0 0 0 0 0 0 0 0 0 0 0 0 0 0 0 0 0 0 0 0 0 0 0 0 0 0 0 0 0 0 0 0 0 0 0 0 0 0 0 0 0 0 0 0 0 0 0 0 0 0 0 -0.0408583 -0.0477232 -0.0449196 -0.0443139 -0.0447213 -0.0442748 -0.0441872 -0.0436476 -0.0434743 -0.0432031 -0.042855 -0.0426585 -0.0424418 -0.0422254 -0.0420268 -0.041853 -0.0416993 -0.041548 -0.041395 -0.0412382 -0.0410773 -0.0409136 -0.0407495 -0.040588 -0.0404324 -0.0402855 -0.0401498 -0.040027 -0.0399183 -0.0398243 -0.0397455 -0.0396821 -0.0396341 -0.0396017 -0.039585 -0.039584 -0.0395987 -0.0396294 -0.0396758 -0.039738 -0.0398155 -0.0399079 -0.0400145 -0.0401343 -0.0402661 -0.0404084 -0.0405596 -0.0407178 -0.040881 -0.0410472 -0.0412144 -0.0413807 -0.0415445 -0.0417042 -0.0418586 -0.0420069 -0.0421484 -0.0422829 -0.0424103 -0.0425308 -0.0426448 -0.0427524 -0.0428542 -0.0429503 -0.0430407 -0.0431254 -0.0432038 -0.0432752 -0.0433384 -0.0433919 -0.0434335 -0.0434604 -0.0434686 -0.0434521 -0.0434017 -0.0433018 -0.0431234 -0.0428006 -0.0421144 -0.0406336 -0.0386065 -0.0358458 -0.031517 -0.0259429 -0.019091 -0.0108175 -2.38524e-18 
0.02 0.02 0.02 0.02 0.02 0.0200001 0.0200001 0.0200001 0.0200001 0.0200002 0.0200002 0.0200003 0.0200004 0.0200005 0.0200006 0.0200007 0.0200009 0.020001 0.0200013 0.0200015 0.0200018 0.0200022 0.0200026 0.0200031 0.0200037 0.0200044 0.0200051 0.0200059 0.0200069 0.020008 0.0200092 0.0200105 0.020012 0.0200137 0.0200155 0.0200176 0.0200198 0.0200223 0.020025 0.020028 0.0200313 0.0200349 0.0200388 0.0200432 0.020048 0.0200534 0.0200592 0.0200657 0.0200729 0.0200808 0.0200895 0.0200992 0.0201098 0.0201214 0.0201342 0.0201482 0.0201635 0.0201802 0.0201983 0.020218 0.0202392 0.0202621 0.0202866 0.0203129 0.020341 0.0203708 0.0204024 0.0204357 0.0204708 0.0205076 0.0205459 0.0205856 0.0206267 0.0206688 0.0207119 0.0207557 0.0207999 0.0208442 0.0208883 0.0209317 0.0209741 0.0210149 0.0210535 0.0210894 0.0211215 0.021149 0.0211705 0.0211845 0.0211891 0.0211817 0.0211596 0.0211191 0.0210565 0.0209674 0.0208472 0.0206913 0.0204951 0.0202543 0.0199649 0.0196234 0.0192278 0.0187783 0.0182783 0.0177337 0.0171525 0.0165451 0.0159226 0.0152902 0.014643 0.0139563 0.0132075 0.0123698 0.0113721 0.00976652 0.00742566 0.00379235 0.00494012 0 0 0 0 0 0 0 0 0 -0.0298427 -0.0331639 -0.0494269 -0.0674438 0 0 0 0 0 0 0 0 0 0 0 0 0 0 0 0 0 0 0 0 0 0 0 0 0 0 0 0 0 0 0 0 0 0 0 0 0 0 0 0 0 0 0 0 0 0 0 0 0 0 0 0 0 0 0 0 0 0 0 0 0 0 0 0 0 0 0 0 0 0 0 0 0 0 0 0 0 0 0 0 0 0 0 0 0 0 0 0 0 0 0 0 0 0 0 0 0 0 0 0 0 0 0 0 0 0 0 0 0 0 0 0 0 0 0 0 0 0 0 0 0 0 0 0 0 0 0 0 0 0 0 0 0 0 0 0 0 0 0 0 0 0 0 0 0 0 0 0 0 0 0 0 0 0 0 0 0 0 0 0 0 0 0 0 0 0 0 0 0 0 0 0 0 0 0 0 0 0 0 0 0 0 0 0 0 0 0 0 0 0 0 0 0 0 0 0 0 0 0 0 0 0 0 0 0 0 0 0 0 0 0 0 0 0 0 0 0 0 0 0 0 0 0 0 0 0 0 0 0 0 0 0 0 0 0 0 0 0 0 0 0 0 0 0 0 0 0 0 0 0 0 0 0 0 0 0 0 0 0 0 0 0 0 0 0 0 0 0 0 0 0 0 0 0 0 0 0 0 0 0 0 0 0 0 0 0 0 0 0 0 0 0 0 0 0 0 0 0 -0.0384694 -0.0389415 -0.0426553 -0.0480188 -0.0517298 -0.053766 -0.0553355 -0.0572319 -0.066076 0 0 0 0 0 0 0 0 0 0 0 0 0 0 0 0 0 0 0 0 0 0 0 0 0 0 0 0 0 0 0 0 -0.0576169 -0.0616987 -0.0613 -0.0599055 -0.0581103 -0.0562068 -0.0543352 -0.0525947 -0.0510397 -0.0496894 -0.0485315 -0.0475521 -0.046755 -0.0461242 -0.0456486 -0.0453021 -0.045064 -0.044913 -0.0448324 -0.0448108 -0.0448386 -0.0449038 -0.0449609 -0.0448892 -0.0448491 -0.0448846 -0.0449602 -0.0450623 -0.0451855 -0.0453259 -0.0454802 -0.0456453 -0.0458194 -0.0460006 -0.0461807 -0.0463345 -0.0464214 -0.0464065 -0.0462788 -0.0460558 -0.045777 -0.0454977 -0.0452617 -0.0451065 -0.0450476 -0.0450681 -0.045139 -0.0452311 -0.0453251 -0.0454135 -0.0454936 -0.0455603 -0.0456103 -0.0456415 -0.0456552 -0.0456542 -0.0456426 -0.0456235 -0.0455995 -0.0455713 -0.0455388 -0.0455003 -0.0454537 -0.0453959 -0.0443748 -0.0440106 -0.0450076 -0.0446653 -0.0443276 -0.044507 -0.0440638 -0.044092 -0.043642 -0.0434109 -0.0432021 -0.042848 -0.0426591 -0.042456 -0.0422422 -0.0420499 -0.0418711 -0.0417175 -0.0415663 -0.0414137 -0.0412578 -0.0410981 -0.0409359 -0.0407734 -0.0406135 -0.0404593 -0.0403135 -0.0401786 -0.0400563 -0.0399478 -0.0398538 -0.0397749 -0.0397112 -0.0396629 -0.0396301 -0.0396128 -0.0396112 -0.0396251 -0.0396548 -0.0397001 -0.0397608 -0.0398366 -0.039927 -0.0400312 -0.0401484 -0.0402773 -0.0404165 -0.0405644 -0.0407192 -0.0408792 -0.0410423 -0.0412066 -0.0413705 -0.0415322 -0.0416903 -0.0418436 -0.0419913 -0.0421328 -0.0422676 -0.0423958 -0.0425173 -0.0426325 -0.0427415 -0.0428446 -0.0429421 -0.0430338 -0.0431197 -0.0431993 -0.0432718 -0.0433362 -0.0433909 -0.0434341 -0.043463 -0.0434738 -0.0434604 -0.0434135 -0.0433161 -0.0431321 -0.0427691 -0.0420464 -0.0407398 -0.0387817 -0.0359441 -0.0318788 -0.0266287 -0.0200808 -0.0116524 -4.11997e-18 
0.02 0.02 0.02 0.02 0.02 0.0200001 0.0200001 0.0200001 0.0200001 0.0200002 0.0200002 0.0200003 0.0200003 0.0200004 0.0200005 0.0200007 0.0200008 0.020001 0.0200012 0.0200015 0.0200018 0.0200021 0.0200025 0.020003 0.0200035 0.0200042 0.0200049 0.0200057 0.0200066 0.0200076 0.0200087 0.02001 0.0200114 0.020013 0.0200147 0.0200166 0.0200187 0.0200211 0.0200236 0.0200264 0.0200294 0.0200328 0.0200364 0.0200405 0.020045 0.0200499 0.0200554 0.0200614 0.020068 0.0200753 0.0200834 0.0200924 0.0201022 0.0201131 0.020125 0.020138 0.0201523 0.0201679 0.0201849 0.0202033 0.0202233 0.0202448 0.0202679 0.0202927 0.0203193 0.0203475 0.0203776 0.0204093 0.0204428 0.0204779 0.0205147 0.0205529 0.0205925 0.0206333 0.0206752 0.0207179 0.0207612 0.0208048 0.0208484 0.0208917 0.0209343 0.0209757 0.0210152 0.0210523 0.0210862 0.0211157 0.0211395 0.0211562 0.0211636 0.0211593 0.0211402 0.0211028 0.0210431 0.0209566 0.0208389 0.0206854 0.0204917 0.0202538 0.0199681 0.0196321 0.0192444 0.0188052 0.0183167 0.0177826 0.0172065 0.0165921 0.0159447 0.0152681 0.0145581 0.0137998 0.0129633 0.011995 0.0107763 0.00916357 0.00744278 0.00318981 -0.00684582 0 0 0 0 0 0 0 0 0 -0.0330553 -0.038175 -0.0474714 -0.0635256 -0.0825965 0 0 0 0 0 0 0 0 0 0 0 0 0 0 0 0 0 0 0 0 0 0 0 0 0 0 0 0 0 0 0 0 0 0 0 0 0 0 0 0 0 0 0 0 0 0 0 0 0 0 0 0 0 0 0 0 0 0 0 0 0 0 0 0 0 0 0 0 0 0 0 0 0 0 0 0 0 0 0 0 0 0 0 0 0 0 0 0 0 0 0 0 0 0 0 0 0 0 0 0 0 0 0 0 0 0 0 0 0 0 0 0 0 0 0 0 0 0 0 0 0 0 0 0 0 0 0 0 0 0 0 0 0 0 0 0 0 0 0 0 0 0 0 0 0 0 0 0 0 0 0 0 0 0 0 0 0 0 0 0 0 0 0 0 0 0 0 0 0 0 0 0 0 0 0 0 0 0 0 0 0 0 0 0 0 0 0 0 0 0 0 0 0 0 0 0 0 0 0 0 0 0 0 0 0 0 0 0 0 0 0 0 0 0 0 0 0 0 0 0 0 0 0 0 0 0 0 0 0 0 0 0 0 0 0 0 0 0 0 0 0 0 0 0 0 0 0 0 0 0 0 0 0 0 0 0 0 0 0 0 0 0 0 0 0 0 0 0 0 0 0 0 0 0 0 0 0 0 0 0 0 0 0 0 0 0 0 0 0 0 0 0 0 0 0 -0.0356626 -0.0355652 -0.039312 -0.0416478 -0.0438897 -0.0477795 -0.0506914 -0.0526898 -0.0542592 -0.0540726 -0.060817 -0.0665615 -0.0741616 -0.0865701 0 0 0 0 0 0 0 0 0 0 0 0 0 0 0 0 0 0 0 0 0 -0.0753711 -0.0797177 -0.0798319 -0.0779042 -0.0747902 -0.0722066 -0.0695312 -0.0664977 -0.0639241 -0.0626381 -0.0614597 -0.0599278 -0.0581414 -0.0562791 -0.0544678 -0.0527824 -0.0512626 -0.0499244 -0.0487622 -0.047774 -0.0469554 -0.0463031 -0.0458034 -0.0454355 -0.0451793 -0.0450143 -0.0449239 -0.0448951 -0.0449163 -0.0449697 -0.0450159 -0.0450136 -0.0450055 -0.0450372 -0.0450981 -0.0451833 -0.0452892 -0.0454125 -0.0455507 -0.0457018 -0.0458632 -0.0460281 -0.0461803 -0.046293 -0.0463371 -0.046295 -0.0461674 -0.0459729 -0.0457412 -0.045507 -0.0453036 -0.0451616 -0.0450987 -0.0451093 -0.0451716 -0.04526 -0.0453546 -0.0454454 -0.0455281 -0.0455981 -0.0456522 -0.0456883 -0.045707 -0.0457105 -0.0457018 -0.0456839 -0.0456587 -0.0456272 -0.0455891 -0.0455435 -0.0454886 -0.0454219 -0.0453391 -0.0450676 -0.0445847 -0.0443666 -0.0442445 -0.0440467 -0.0438763 -0.0437399 -0.0435428 -0.0433149 -0.04311 -0.0428317 -0.042647 -0.0424564 -0.0422461 -0.0420632 -0.0418878 -0.0417357 -0.0415853 -0.0414334 -0.0412783 -0.0411199 -0.0409595 -0.040799 -0.0406415 -0.0404896 -0.0403462 -0.0402135 -0.0400932 -0.0399866 -0.0398944 -0.0398171 -0.039755 -0.0397082 -0.0396768 -0.0396607 -0.0396601 -0.039675 -0.0397052 -0.0397506 -0.039811 -0.039886 -0.039975 -0.0400772 -0.0401916 -0.0403172 -0.0404525 -0.040596 -0.0407462 -0.0409013 -0.0410595 -0.0412193 -0.0413788 -0.0415368 -0.0416918 -0.0418427 -0.0419888 -0.0421294 -0.042264 -0.0423925 -0.0425149 -0.0426312 -0.0427416 -0.0428461 -0.0429448 -0.0430376 -0.0431242 -0.0432041 -0.0432766 -0.0433406 -0.0433946 -0.0434367 -0.0434642 -0.0434732 -0.0434575 -0.0434066 -0.0432992 -0.0430874 -0.0426733 -0.04191 -0.040631 -0.0386926 -0.0358974 -0.0320534 -0.0270853 -0.0207311 -0.0121894 -2.1684e-19 
0.02 0.02 0.02 0.02 0.02 0.02 0.0200001 0.0200001 0.0200001 0.0200002 0.0200002 0.0200003 0.0200003 0.0200004 0.0200005 0.0200006 0.0200008 0.020001 0.0200012 0.0200014 0.0200017 0.020002 0.0200024 0.0200028 0.0200034 0.0200039 0.0200046 0.0200054 0.0200062 0.0200072 0.0200082 0.0200094 0.0200108 0.0200122 0.0200138 0.0200156 0.0200175 0.0200196 0.020022 0.0200245 0.0200273 0.0200304 0.0200338 0.0200375 0.0200415 0.020046 0.020051 0.0200565 0.0200625 0.0200692 0.0200766 0.0200848 0.0200938 0.0201037 0.0201147 0.0201267 0.0201398 0.0201542 0.0201699 0.020187 0.0202055 0.0202255 0.020247 0.0202702 0.0202951 0.0203216 0.0203499 0.0203798 0.0204115 0.0204449 0.0204798 0.0205164 0.0205543 0.0205936 0.0206341 0.0206755 0.0207177 0.0207605 0.0208035 0.0208465 0.0208891 0.0209308 0.0209711 0.0210094 0.0210448 0.0210762 0.0211024 0.0211217 0.0211321 0.021131 0.0211152 0.0210813 0.021025 0.0209422 0.0208283 0.0206789 0.0204899 0.0202576 0.0199789 0.0196516 0.0192743 0.0188468 0.0183692 0.0178419 0.0172641 0.0166342 0.0159508 0.0152145 0.0144232 0.0135692 0.0126336 0.0115478 0.0102438 0.008572 0.00641434 0.0013739 -0.00808048 0 0 0 0 0 0 0 0 -0.0293157 -0.0345366 -0.0401957 -0.0501052 -0.0608306 -0.0785218 -0.0808115 0 0 0 0 0 0 0 0 0 0 0 0 0 0 0 0 0 0 0 0 0 0 0 0 0 0 0 0 0 0 0 0 0 0 0 0 0 0 0 0 0 0 0 0 0 0 0 0 0 0 0 0 0 0 0 0 0 0 0 0 0 0 0 0 0 0 0 0 0 0 0 0 0 0 0 0 0 0 0 0 0 0 0 0 0 0 0 0 0 0 0 0 0 0 0 0 0 0 0 0 0 0 0 0 0 0 0 0 0 0 0 0 0 0 0 0 0 0 0 0 0 0 0 0 0 0 0 0 0 0 0 0 0 0 0 0 0 0 0 0 0 0 0 0 0 0 0 0 0 -0.0552964 0 0 0 0 0 0 0 0 0 0 0 0 0 0 0 0 0 0 0 0 0 0 0 0 0 0 0 0 0 0 0 0 0 0 0 0 0 -0.0701256 -0.0737857 -0.0749069 -0.0751877 -0.0751151 -0.0748831 -0.0745908 -0.0742999 -0.0740432 -0.0738443 -0.0737139 -0.0736441 -0.0736401 -0.0741368 -0.0807994 0 0 0 0 0 0 0 0 0 0 0 0 0 0 0 0 0 0 0 0 0 0 0 0 0 0 0 0 0 0 0 0 0 0 0 0 0 0 0 0 0 0 0 0 0 0 0 0 0 0 0 0 0 0 0 0 0 0 0 0 0 0 0 0 0 0 0 0 0 0 0 0 0 0 0 0 0 0 0 0 0 0 0 0 0 0 0 0 0 0 0 0 -0.0310569 -0.0383443 -0.0417511 -0.0434014 -0.0445831 -0.0475637 -0.0500645 -0.0520851 -0.0538625 -0.0559803 -0.0595089 -0.0636109 -0.073625 -0.0887142 0 0 0 0 0 0 0 0 0 -0.0819101 -0.0835184 -0.0907984 -0.0957333 -0.0938162 -0.0946106 -0.0952482 -0.0942369 -0.0935546 -0.0907202 -0.0888257 -0.0867082 -0.0833965 -0.0817712 -0.0801958 -0.077897 -0.075094 -0.07232 -0.0695639 -0.0668806 -0.0647462 -0.0631077 -0.061526 -0.0598345 -0.0580473 -0.0562587 -0.0545455 -0.0529542 -0.0515077 -0.0502113 -0.0490642 -0.0480703 -0.0472351 -0.0465586 -0.0460311 -0.0456356 -0.0453537 -0.0451665 -0.0450573 -0.0450121 -0.0450162 -0.0450487 -0.04508 -0.0450903 -0.0450941 -0.0451212 -0.0451744 -0.045251 -0.0453476 -0.0454612 -0.0455895 -0.0457296 -0.0458757 -0.0460153 -0.0461285 -0.0461928 -0.0461933 -0.0461291 -0.0460112 -0.0458576 -0.0456861 -0.0455149 -0.045362 -0.0452496 -0.0451952 -0.0451992 -0.0452503 -0.0453278 -0.0454154 -0.0455024 -0.0455824 -0.0456511 -0.0457042 -0.0457403 -0.0457589 -0.0457624 -0.0457529 -0.0457331 -0.0457046 -0.0456684 -0.0456244 -0.0455718 -0.0455092 -0.0454348 -0.045345 -0.0452024 -0.044941 -0.0445531 -0.0441971 -0.0439607 -0.0437295 -0.043557 -0.0434231 -0.0432166 -0.0430197 -0.0428172 -0.0426337 -0.0424481 -0.0422486 -0.0420746 -0.0419098 -0.0417608 -0.0416125 -0.0414624 -0.041309 -0.0411526 -0.0409945 -0.0408367 -0.0406821 -0.0405332 -0.0403929 -0.0402631 -0.0401457 -0.0400417 -0.0399522 -0.0398774 -0.0398176 -0.0397731 -0.0397437 -0.0397296 -0.0397307 -0.0397469 -0.039778 -0.0398238 -0.0398839 -0.0399579 -0.0400451 -0.0401446 -0.0402555 -0.0403768 -0.040507 -0.0406449 -0.040789 -0.0409377 -0.0410896 -0.0412432 -0.0413971 -0.04155 -0.0417007 -0.0418484 -0.0419921 -0.0421313 -0.0422654 -0.0423942 -0.0425175 -0.0426351 -0.042747 -0.0428531 -0.0429531 -0.043047 -0.0431342 -0.0432143 -0.0432863 -0.0433493 -0.0434017 -0.0434416 -0.0434664 -0.043472 -0.0434516 -0.0433926 -0.0432683 -0.0430242 -0.042567 -0.0417699 -0.0404879 -0.0385713 -0.0358582 -0.0322011 -0.0274447 -0.0212012 -0.0125569 -2.38524e-18 