# vtk DataFile Version 2.0
iteration 783
ASCII

DATASET STRUCTURED_POINTS
DIMENSIONS 621 64 1
ORIGIN 0 0 0
SPACING 0.00161031 0.00161031 0.00161031

POINT_DATA 39744
SCALARS P float 1
LOOKUP_TABLE default
0 0 0 0 0 0 0 0 0 0 0 0 0 0 0 0 0 0 0 0 0 0 0 0 0 0 0 0 0 0 0 0 0 0 0 0 0 0 0 0 0 0 0 0 0 0 0 0 0 0 0 0 0 0 0 0 0 0 0 0 0 0 0 0 0 0 0 0 0 0 0 0 0 0 0 0 0 0 0 0 0 0 0 0 0 0 0 0 0 0 0 0 0 0 0 0 0 0 0 0 0 0 0 0 0 0 0 0 0 0 0 0 0 0 0 0 0 0 0 0 0 0 0 0 0 0 0 0 0 0 0 0 0 0 0 0 0 0 0 0 0 0 0 0 0 0 0 0 0 0 0 0 0 0 0 0 0 0 0 0 0 0 0 0 0 0 0 0 0 0 0 0 0 0 0 0 0 0 0 0 0 0 0 0 0 0 0 0 0 0 0 0 0 0 0 0 0 0 0 0 0 0 0 0 0 0 0 0 0 0 0 0 0 0 0 0 0 0 0 0 0 0 0 0 0 0 0 0 0 0 0 0 0 0 0 0 0 0 0 0 0 0 0 0 0 0 0 0 0 0 0 0 0 0 0 0 0 0 0 0 0 0 0 0 0 0 0 0 0 0 0 0 0 0 0 0 0 0 0 0 0 0 0 0 0 0 0 0 0 0 0 0 0 0 0 0 0 0 0 0 0 0 0 0 0 0 0 0 0 0 0 0 0 0 0 0 0 0 0 0 0 0 0 0 0 0 0 0 0 0 0 0 0 0 0 0 0 0 0 0 0 0 0 0 0 0 0 0 0 0 0 0 0 0 0 0 0 0 0 0 0 0 0 0 0 0 0 0 0 0 0 0 0 0 0 0 0 0 0 0 0 0 0 0 0 0 0 0 0 0 0 0 0 0 0 0 0 0 0 0 0 0 0 0 0 0 0 0 0 0 0 0 0 0 0 0 0 0 0 0 0 0 0 0 0 0 0 0 0 0 0 0 0 0 0 0 0 0 0 0 0 0 0 0 0 0 0 0 0 0 0 0 0 0 0 0 0 0 0 0 0 0 0 0 0 0 0 0 0 0 0 0 0 0 0 0 0 0 0 0 0 0 0 0 0 0 0 0 0 0 0 0 0 0 0 0 0 0 0 0 0 0 0 0 0 0 0 0 0 0 0 0 0 0 0 0 0 0 0 0 0 0 0 0 0 0 0 0 0 0 0 0 0 0 0 0 0 0 0 0 0 0 0 0 0 0 0 0 0 0 0 0 0 0 0 0 0 0 0 0 0 0 0 0 0 0 0 0 0 0 0 0 0 0 0 0 0 0 0 0 0 0 0 0 0 0 0 0 0 0 0 0 0 0 0 0 0 0 0 0 0 0 0 0 0 0 0 0 0 0 0 0 0 0 0 0 0 0 0 0 0 
0.02 0.02 0.02 0.02 0.02 0.02 0.02 0.02 0.02 0.02 0.02 0.02 0.02 0.02 0.02 0.02 0.02 0.02 0.02 0.0200001 0.0200001 0.0200001 0.0200001 0.0200001 0.0200001 0.0200002 0.0200002 0.0200002 0.0200003 0.0200003 0.0200004 0.0200005 0.0200005 0.0200006 0.0200007 0.0200009 0.020001 0.0200012 0.0200014 0.0200016 0.0200018 0.0200021 0.0200024 0.0200028 0.0200032 0.0200036 0.0200041 0.0200047 0.0200053 0.020006 0.0200068 0.0200077 0.0200087 0.0200097 0.0200109 0.0200122 0.0200137 0.0200153 0.020017 0.0200189 0.020021 0.0200233 0.0200258 0.0200285 0.0200315 0.0200348 0.0200383 0.0200422 0.0200464 0.020051 0.0200559 0.0200612 0.020067 0.0200733 0.02008 0.0200872 0.020095 0.0201034 0.0201123 0.0201219 0.0201321 0.020143 0.0201546 0.0201669 0.0201799 0.0201937 0.0202083 0.0202236 0.0202396 0.0202565 0.0202741 0.0202924 0.0203114 0.0203311 0.0203514 0.0203723 0.0203937 0.0204154 0.0204375 0.0204597 0.0204819 0.0205039 0.0205256 0.0205465 0.0205665 0.0205852 0.0206021 0.0206169 0.0206289 0.0206376 0.0206423 0.0206424 0.0206371 0.0206256 0.0206072 0.0205811 0.0205467 0.0205032 0.0204501 0.0203871 0.0203137 0.0202299 0.0201356 0.020031 0.0199165 0.0197921 0.0196574 0.0195098 0.019349 0.0191875 0.0190235 0.0188567 0.0186877 0.0185169 0.0183448 0.0181719 0.0179985 0.0178247 0.0176502 0.0174748 0.0172978 0.0171184 0.0169355 0.0167479 0.0165538 0.0163515 0.0161385 0.0159123 0.0156693 0.0154051 0.0151102 0.0147771 0.0143972 0.0140286 0.013675 0.0133314 0.0130528 0.012799 0.013251 0.0146972 0.0140986 0 0 0 0 0 0 0 0 0 0 0 0 0 0 0 0 0 0 0 0 0 0 0 0 0 0 0 0 0 0 0 0 0 0 0 0 0 0 0 0 0 0 0 0 0 0 0 0 0 0 0 0 0 0 0 0 0 0 0 0 0 0 0 0 0 0 0 0 0 0 0 0 0 0 0 0 0 0 0 0 0 0 0 0 0 0 0 0 0 0 0 0 0 0 0 0 0 0 0 0 0 0 0 0 0 0 0 0 0 0 0 0 0 0 0 0 0 0 0 0 0 0 0 0 0 0 0 0 0 0 0 0 0 0 0 0 0 0 0 0 0 0 0 0 0 0 0 0 0 0 0 0 0 0 0 0 0 0 0 0 0 0 0 0 0 0 0 0 0 0 0 0 0 0 0 0 0 0 0 0 0 0 0 0 0 0 0 0 0 0 0 0 0 0 0 0 0 0 0 0 0 0 0 0 0 0 0 0 0 0 0 0 0 0 0 0 0 0 0 0 0 0 0 0 0 0 0 0 0 0 0 0 0 0 0 0 0 0 0 0 0 0 0 0 0 0 0 0 0 0 0 0 0 0 0 0 0 0 0 0 0 0 0 0 0 0 0 0 0 0 0 0 0 0 0 0 0 0 0 0 0 0 0 0 0 0 0 0 0 0 0 0 0 0 0 0 0 0 0 0 0 0 0 0 0 0 0 0 0 0 0 0 0 0 0 0 0 0 0 0 0 0 0 0 0 0 0 0 0 0 0 0 0 0 0 0 0 0 0 0 0 0 0 0 0 0 0 0 0 0 0 0 0 0 0 0 0 0 0 0 0 0 0 0 0 0 0 0 0 0 0 0 0 0 0 0 0 0 0 0 0 0 0 0 0 0 0 0 0 0 0 0 0 0 0 0 0 0 0 0 0 0 0 0 0 0 0 0 0 0 0 0 0 0 0 0 0 0 0 0 0 0 0 0 0 0 0 0 0 0 0 0 0 0 0 0 0 0 0 0 0 0 0 0 0 0 0 0 0 0 0 0 0 0 0 0 0 0 0 0 
0.02 0.02 0.02 0.02 0.02 0.02 0.02 0.02 0.02 0.02 0.02 0.02 0.02 0.02 0.02 0.02 0.02 0.02 0.02 0.0200001 0.0200001 0.0200001 0.0200001 0.0200001 0.0200001 0.0200002 0.0200002 0.0200002 0.0200003 0.0200003 0.0200004 0.0200005 0.0200005 0.0200006 0.0200007 0.0200009 0.020001 0.0200012 0.0200013 0.0200016 0.0200018 0.0200021 0.0200024 0.0200027 0.0200031 0.0200036 0.0200041 0.0200046 0.0200053 0.020006 0.0200067 0.0200076 0.0200085 0.0200096 0.0200108 0.0200121 0.0200135 0.020015 0.0200168 0.0200186 0.0200207 0.020023 0.0200255 0.0200282 0.0200311 0.0200343 0.0200378 0.0200417 0.0200458 0.0200503 0.0200552 0.0200605 0.0200662 0.0200724 0.020079 0.0200862 0.0200939 0.0201021 0.020111 0.0201205 0.0201306 0.0201414 0.0201529 0.0201651 0.020178 0.0201917 0.0202061 0.0202213 0.0202373 0.020254 0.0202715 0.0202897 0.0203087 0.0203283 0.0203485 0.0203693 0.0203906 0.0204123 0.0204343 0.0204565 0.0204787 0.0205008 0.0205225 0.0205435 0.0205636 0.0205824 0.0205995 0.0206144 0.0206267 0.0206356 0.0206407 0.0206412 0.0206363 0.0206254 0.0206076 0.0205822 0.0205485 0.0205058 0.0204537 0.0203917 0.0203195 0.0202369 0.0201438 0.0200405 0.0199271 0.0198036 0.0196695 0.0195246 0.0193708 0.0192124 0.0190506 0.0188857 0.0187185 0.0185495 0.0183792 0.018208 0.0180361 0.0178636 0.0176903 0.0175157 0.0173391 0.0171597 0.0169762 0.0167872 0.0165909 0.0163851 0.0161669 0.0159333 0.0156805 0.0154035 0.0150975 0.0147631 0.0144075 0.0140576 0.0137221 0.013424 0.0132116 0.0128872 0.0129733 0.0136846 0.0138856 0.0140463 0 0 0.00599042 0.00616871 0.00563369 0.00396892 0 0 0 0 0 0 0 0 0 0 0 0 0 0 0 0 0 0 0 0 0 0 0 0 0 0 0 0 0 0 0 0 0 0 0 0 0 0 0 0 0 0 0 0 0 0 0 0 0 0 0 0 0 0 0 0 0 0 0 0 0 0 0 0 0 0 0 0 0 0 0 0 0 0 0 0 0 0 0 0 0 0 0 0 0 0 0 0 0 0 0 0 0 0 0 0 0 0 0 0 0 0 0 0 0 0 0 0 0 0 0 0 0 0 0 0 0 0 0 0 0 0 0 0 0 0 0 0 0 0 0 0 0 0 0 0 0 0 0 0 0 0 0 0 0 0 0 0 0 0 0 0 0 0 0 0 0 0 0 0 0 0 0 0 0 0 0 0 0 0 0 0 0 0 0 0 0 0 0 0 0 0 0 0 0 0 0 0 0 0 0 0 0 0 0 0 0 0 0 0 0 0 0 0 0 0 0 0 0 0 0 0 0 0 0 0 0 0 0 0 0 0 0 0 0 0 0 0 0 0 0 0 0 0 0 0 0 0 0 0 0 0 0 0 0 0 0 0 0 0 0 0 0 0 0 0 0 0 0 0 0 0 0 0 0 0 0 0 0 0 0 0 0 0 0 0 0 0 0 0 0 0 0 0 0 0 0 0 0 0 0 0 0 0 0 0 0 0 0 0 0 0 0 0 0 0 0 0 0 0 0 0 0 0 0 0 0 0 0 0 0 0 0 0 0 0 0 0 0 0 0 0 0 0 0 0 0 0 0 0 0 0 0 0 0 0 0 0 0 0 0 0 0 0 0 0 0 0 0 0 0 0 0 0 0 0 0 0 0 0 0 0 0 0 0 0 0 0 0 0 0 0 0 0 0 0 0 0 0 0 0 0 0 0 0 0 0 0 0 0 0 0 0 0 0 0 0 0 0 0 0 0 0 0 0 0 0 0 0 0 0 0 0 0 0 0 0 0 0 0 0 0 0 0 0 0 0 0 0 0 0 0 0 0 0 0 0 0 0 0 0 0 0 
0.02 0.02 0.02 0.02 0.02 0.02 0.02 0.02 0.02 0.02 0.02 0.02 0.02 0.02 0.02 0.02 0.02 0.02 0.02 0.0200001 0.0200001 0.0200001 0.0200001 0.0200001 0.0200001 0.0200002 0.0200002 0.0200002 0.0200003 0.0200003 0.0200004 0.0200005 0.0200005 0.0200006 0.0200007 0.0200008 0.020001 0.0200011 0.0200013 0.0200015 0.0200018 0.020002 0.0200024 0.0200027 0.0200031 0.0200035 0.020004 0.0200046 0.0200052 0.0200059 0.0200066 0.0200075 0.0200084 0.0200095 0.0200106 0.0200119 0.0200133 0.0200148 0.0200165 0.0200184 0.0200204 0.0200226 0.0200251 0.0200277 0.0200307 0.0200338 0.0200373 0.020041 0.0200451 0.0200496 0.0200544 0.0200596 0.0200652 0.0200713 0.0200779 0.0200849 0.0200925 0.0201007 0.0201094 0.0201188 0.0201288 0.0201395 0.0201508 0.0201629 0.0201757 0.0201892 0.0202035 0.0202186 0.0202344 0.020251 0.0202683 0.0202864 0.0203052 0.0203247 0.0203448 0.0203655 0.0203867 0.0204083 0.0204302 0.0204524 0.0204746 0.0204966 0.0205183 0.0205393 0.0205595 0.0205784 0.0205956 0.0206108 0.0206232 0.0206325 0.0206379 0.0206388 0.0206343 0.0206239 0.0206067 0.0205819 0.020549 0.0205071 0.0204559 0.0203949 0.0203238 0.0202423 0.0201506 0.0200485 0.0199363 0.0198137 0.0196809 0.0195386 0.0193889 0.0192339 0.0190749 0.0189128 0.0187482 0.0185818 0.0184141 0.0182454 0.018076 0.0179058 0.0177346 0.0175617 0.0173865 0.0172079 0.0170246 0.0168349 0.0166367 0.0164275 0.0162043 0.0159638 0.0157026 0.0154179 0.0151103 0.0147819 0.0144477 0.0141236 0.013822 0.0135766 0.0134358 0.0133174 0.0131431 0.0134797 0.013459 0.0150021 0.0125673 0.0070809 0.0066431 0.00630208 0.00538042 0.00388441 0.0024818 0.00103822 -0.00051312 -0.00175237 0 0 0 0 0 0 0 0 0 0 0 0 0 0 0 0 0 0 0 0 0 0 0 0 0 0 0 0 0 0 0 0 0 0 0 0 0 0 0 0 0 0 0 0 0 0 0 0 0 0 0 0 0 0 0 0 0 0 0 0 0 0 0 0 0 0 0 0 0 0 0 0 0 0 0 0 0 0 0 0 0 0 0 0 0 0 0 0 0 0 0 0 0 0 0 0 0 0 0 0 0 0 0 0 0 0 0 0 0 0 0 0 0 0 0 0 0 0 0 0 0 0 0 0 0 0 0 0 0 0 0 0 0 0 0 0 0 0 0 0 0 0 0 0 0 0 0 0 0 0 0 0 0 0 0 0 0 0 0 0 0 0 0 0 0 0 0 0 0 0 0 0 0 0 0 0 0 0 0 0 0 0 0 0 0 0 0 0 0 0 0 0 0 0 0 0 0 0 0 0 0 0 0 0 0 0 0 0 0 0 0 0 0 0 0 0 0 0 0 0 0 0 0 0 0 0 0 0 0 0 0 0 0 0 0 0 0 0 0 0 0 0 0 0 0 0 0 0 0 0 0 0 0 0 0 0 0 0 0 0 0 0 0 0 0 0 0 0 0 0 0 0 0 0 0 0 0 0 0 0 0 0 0 0 0 0 0 0 0 0 0 0 0 0 0 0 0 0 0 0 0 0 0 0 0 0 0 0 0 0 0 0 0 0 0 0 0 0 0 0 0 0 0 0 0 0 0 0 0 0 0 0 0 0 0 0 0 0 0 0 0 0 0 0 0 0 0 0 0 0 0 0 0 0 0 0 0 0 0 0 0 0 0 0 0 0 0 0 0 0 0 0 0 0 0 0 0 0 0 0 0 0 0 0 0 0 0 0 0 0 0 0 0 0 0 0 0 0 0 0 0 0 0 0 0 0 0 0 0 0 0 0 0 0 0 0 0 0 0 0 0 0 0 0 0 0 0 0 0 0 0 0 0 0 0 0 0 0 0 0 0 0 0 0 0 0 0 0 -5.42101e-20 
0.02 0.02 0.02 0.02 0.02 0.02 0.02 0.02 0.02 0.02 0.02 0.02 0.02 0.02 0.02 0.02 0.02 0.02 0.02 0.0200001 0.0200001 0.0200001 0.0200001 0.0200001 0.0200001 0.0200002 0.0200002 0.0200002 0.0200003 0.0200003 0.0200004 0.0200004 0.0200005 0.0200006 0.0200007 0.0200008 0.020001 0.0200011 0.0200013 0.0200015 0.0200017 0.020002 0.0200023 0.0200026 0.020003 0.0200035 0.0200039 0.0200045 0.0200051 0.0200058 0.0200065 0.0200073 0.0200083 0.0200093 0.0200104 0.0200117 0.020013 0.0200145 0.0200162 0.020018 0.02002 0.0200222 0.0200246 0.0200272 0.0200301 0.0200332 0.0200365 0.0200402 0.0200442 0.0200486 0.0200533 0.0200584 0.0200639 0.0200699 0.0200763 0.0200833 0.0200907 0.0200987 0.0201073 0.0201165 0.0201264 0.0201368 0.020148 0.0201599 0.0201725 0.0201858 0.0201999 0.0202147 0.0202303 0.0202467 0.0202638 0.0202817 0.0203002 0.0203195 0.0203394 0.0203599 0.020381 0.0204024 0.0204242 0.0204462 0.0204683 0.0204903 0.0205119 0.020533 0.0205532 0.0205722 0.0205896 0.0206049 0.0206176 0.0206272 0.020633 0.0206343 0.0206304 0.0206206 0.0206041 0.0205801 0.0205481 0.0205073 0.0204572 0.0203975 0.0203277 0.0202478 0.0201576 0.0200572 0.0199466 0.0198258 0.0196953 0.0195562 0.0194102 0.0192589 0.0191034 0.0189446 0.0187834 0.0186202 0.0184557 0.0182902 0.0181238 0.0179563 0.0177875 0.0176166 0.0174428 0.017265 0.0170816 0.0168908 0.0166903 0.0164776 0.0162499 0.0160044 0.0157391 0.0154538 0.0151509 0.0148389 0.0145284 0.014236 0.0139787 0.0137725 0.013663 0.0136319 0.0136101 0.0134744 0.0132954 0.0131279 0.0111748 0.00887974 0.0074371 0.006313 0.00513306 0.00354114 0.00225782 0.000917724 -0.000394569 -0.00197708 -0.0034586 -0.00500996 -0.00741858 0 0 0 0 0 0 0 0 0 0 0 0 0 0 0 0 0 0 0 0 0 0 0 0 0 0 0 0 0 0 0 0 0 0 0 0 0 0 0 0 0 0 0 0 0 0 0 0 0 0 0 0 0 0 0 0 0 0 0 0 0 0 0 0 0 0 0 0 0 0 0 0 0 0 0 0 0 0 0 0 0 0 0 0 0 0 0 0 0 0 0 0 0 0 0 0 0 0 0 0 0 0 0 0 0 0 0 0 0 0 0 0 0 0 0 0 0 0 0 0 0 0 0 0 0 0 0 0 0 0 0 0 0 0 0 0 0 0 0 0 0 0 0 0 0 0 0 0 0 0 0 0 0 0 0 0 0 0 0 0 0 0 0 0 0 0 0 0 0 0 0 0 0 0 0 0 0 0 0 0 0 0 0 0 0 0 0 0 0 0 0 0 0 0 0 0 0 0 0 0 0 0 0 0 0 0 0 0 0 0 0 0 0 0 0 0 0 0 0 0 0 0 0 0 0 0 0 0 0 0 0 0 0 0 0 0 0 0 0 0 0 0 0 0 0 0 0 0 0 0 0 0 0 0 0 0 0 0 0 0 0 0 0 0 0 0 0 0 0 0 0 0 0 0 0 0 0 0 0 0 0 0 0 0 0 0 0 0 0 0 0 0 0 0 0 0 0 0 0 0 0 0 0 0 0 0 0 0 0 0 0 0 0 0 0 0 0 0 0 0 0 0 0 0 0 0 0 0 0 0 0 0 0 0 0 0 0 0 0 0 0 0 0 0 0 0 0 0 0 0 0 0 0 0 0 0 0 0 0 0 0 0 0 0 0 0 0 0 0 0 0 0 0 0 0 0 0 0 0 0 0 0 0 0 0 0 0 0 0 0 0 0 0 0 0 0 0 0 0 0 0 0 0 0 0 0 0 0 0 0 0 0 0 0 0 0 0 0 0 0 0 0 0 0 0 0 0 0 0 0 0 0 0 0 0 0 0 0 0 0 0 0 0 0 -0.00406453 -2.1684e-19 
0.02 0.02 0.02 0.02 0.02 0.02 0.02 0.02 0.02 0.02 0.02 0.02 0.02 0.02 0.02 0.02 0.02 0.02 0.02 0.02 0.0200001 0.0200001 0.0200001 0.0200001 0.0200001 0.0200002 0.0200002 0.0200002 0.0200003 0.0200003 0.0200004 0.0200004 0.0200005 0.0200006 0.0200007 0.0200008 0.0200009 0.0200011 0.0200013 0.0200015 0.0200017 0.020002 0.0200023 0.0200026 0.020003 0.0200034 0.0200038 0.0200044 0.020005 0.0200056 0.0200063 0.0200072 0.0200081 0.0200091 0.0200102 0.0200114 0.0200127 0.0200142 0.0200158 0.0200176 0.0200195 0.0200216 0.0200239 0.0200265 0.0200293 0.0200323 0.0200356 0.0200392 0.0200431 0.0200473 0.0200519 0.0200569 0.0200623 0.0200681 0.0200743 0.0200811 0.0200884 0.0200962 0.0201046 0.0201135 0.0201231 0.0201334 0.0201443 0.0201559 0.0201682 0.0201813 0.0201951 0.0202096 0.0202249 0.020241 0.0202578 0.0202754 0.0202936 0.0203126 0.0203322 0.0203525 0.0203732 0.0203945 0.020416 0.0204379 0.0204598 0.0204816 0.0205032 0.0205242 0.0205444 0.0205634 0.0205809 0.0205964 0.0206094 0.0206194 0.0206256 0.0206274 0.0206242 0.0206151 0.0205995 0.0205766 0.0205457 0.0205062 0.0204576 0.0203995 0.0203315 0.0202535 0.0201653 0.0200671 0.0199588 0.0198408 0.0197135 0.0195782 0.0194363 0.019289 0.0191375 0.0189826 0.0188252 0.0186658 0.0185049 0.0183429 0.0181796 0.0180151 0.0178487 0.0176798 0.0175073 0.01733 0.0171463 0.0169543 0.016752 0.0165368 0.0163067 0.0160597 0.0157957 0.015516 0.0152256 0.0149331 0.01465 0.0143888 0.0141665 0.0139894 0.0138681 0.0138081 0.0137101 0.0135164 0.0131692 0.0123367 0.0106759 0.00887337 0.0074049 0.00607217 0.00472594 0.00323046 0.00198468 0.000650632 -0.000715215 -0.00214112 -0.00356233 -0.00502455 -0.00670802 -0.0086604 -0.0106008 -0.0135333 -0.0149014 0 0 0 0 0 0 0 0 0 0 0 0 0 0 0 0 0 0 0 0 0 0 0 0 0 0 0 0 0 0 0 0 0 0 0 0 0 0 0 0 0 0 0 0 0 0 0 0 0 0 0 0 0 0 0 0 0 0 0 0 0 0 0 0 0 0 0 0 0 0 0 0 0 0 0 0 0 0 0 0 0 0 0 0 0 0 0 0 0 0 0 0 0 0 0 0 0 0 0 0 0 0 0 0 0 0 0 0 0 0 0 0 0 0 0 0 0 0 0 0 0 0 0 0 0 0 0 0 0 0 0 0 0 0 0 0 0 0 0 0 0 0 0 0 0 0 0 0 0 0 0 0 0 0 0 0 0 0 0 0 0 0 0 0 0 0 0 0 0 0 0 0 0 0 0 0 0 0 0 0 0 0 0 0 0 0 0 0 0 0 0 0 0 0 0 0 0 0 0 0 0 0 0 0 0 0 0 0 0 0 0 0 0 0 0 0 0 0 0 0 0 0 0 0 0 0 0 0 0 0 0 0 0 0 0 0 0 0 0 0 0 0 0 0 0 0 0 0 0 0 0 0 0 0 0 0 0 0 0 0 0 0 0 0 0 0 0 0 0 0 0 0 0 0 0 0 0 0 0 0 0 0 0 0 0 0 0 0 0 0 0 0 0 0 0 0 0 0 0 0 0 0 0 0 0 0 0 0 0 0 0 0 0 0 0 0 0 0 0 0 0 0 0 0 0 0 0 0 0 0 0 0 0 0 0 0 0 0 0 0 0 0 0 0 0 0 0 0 0 0 0 0 0 0 0 0 0 0 0 0 0 0 0 0 0 0 0 0 0 0 0 0 0 0 0 0 0 0 0 0 0 0 0 0 0 0 0 0 0 0 0 0 0 0 0 0 0 0 0 0 0 0 0 0 0 0 0 0 0 0 0 0 0 0 0 0 0 0 0 0 0 0 0 0 0 0 0 0 0 0 0 0 0 0 0 0 0 0 0 -0.0130859 -0.0068195 4.33681e-19 
0.02 0.02 0.02 0.02 0.02 0.02 0.02 0.02 0.02 0.02 0.02 0.02 0.02 0.02 0.02 0.02 0.02 0.02 0.02 0.02 0.0200001 0.0200001 0.0200001 0.0200001 0.0200001 0.0200001 0.0200002 0.0200002 0.0200003 0.0200003 0.0200004 0.0200004 0.0200005 0.0200006 0.0200007 0.0200008 0.0200009 0.0200011 0.0200012 0.0200014 0.0200016 0.0200019 0.0200022 0.0200025 0.0200029 0.0200033 0.0200037 0.0200042 0.0200048 0.0200054 0.0200061 0.0200069 0.0200078 0.0200088 0.0200098 0.020011 0.0200123 0.0200137 0.0200153 0.020017 0.0200189 0.0200209 0.0200232 0.0200256 0.0200283 0.0200312 0.0200344 0.0200379 0.0200416 0.0200457 0.0200502 0.020055 0.0200602 0.0200658 0.0200719 0.0200784 0.0200855 0.020093 0.0201011 0.0201099 0.0201192 0.0201291 0.0201397 0.020151 0.020163 0.0201757 0.0201891 0.0202033 0.0202182 0.0202339 0.0202503 0.0202675 0.0202854 0.020304 0.0203232 0.0203431 0.0203635 0.0203844 0.0204057 0.0204272 0.0204489 0.0204705 0.0204919 0.0205128 0.020533 0.0205521 0.0205697 0.0205854 0.0205987 0.020609 0.0206157 0.0206182 0.0206157 0.0206075 0.020593 0.0205713 0.0205417 0.0205038 0.020457 0.0204008 0.0203349 0.0202593 0.0201737 0.0200783 0.019973 0.0198584 0.0197351 0.0196041 0.0194667 0.0193239 0.0191768 0.0190263 0.0188731 0.0187178 0.0185609 0.0184025 0.0182426 0.0180809 0.017917 0.0177501 0.0175789 0.0174023 0.0172188 0.0170264 0.0168234 0.0166078 0.0163781 0.0161338 0.0158755 0.0156064 0.0153323 0.0150614 0.014804 0.0145684 0.014361 0.0141862 0.0140354 0.0139035 0.0137581 0.0134794 0.0129314 0.0119527 0.0103959 0.00877323 0.00729406 0.00577312 0.00435441 0.00297216 0.00169838 0.000326849 -0.00104299 -0.00245363 -0.00383712 -0.00535998 -0.00694607 -0.00870064 -0.010516 -0.0127022 -0.0150432 -0.0173116 -0.0197554 -0.0244035 -0.0254814 0 0 0 0 0 0 0 0 0 0 0 0 0 0 0 0 0 0 0 0 0 0 0 0 0 0 0 0 0 0 0 0 0 0 0 0 0 0 0 0 0 0 0 0 0 0 0 0 0 0 0 0 0 0 0 0 0 0 0 0 0 0 0 0 0 0 0 0 0 0 0 0 0 0 0 0 0 0 0 0 0 0 0 0 0 0 0 0 0 0 0 0 0 0 0 0 0 0 0 0 0 0 0 0 0 0 0 0 0 0 0 0 0 0 0 0 0 0 0 0 0 0 0 0 0 0 0 0 0 0 0 0 0 0 0 0 0 0 0 0 0 0 0 0 0 0 0 0 0 0 0 0 0 0 0 0 0 0 0 0 0 0 0 0 0 0 0 0 0 0 0 0 0 0 0 0 0 0 0 0 0 0 0 0 0 0 0 0 0 0 0 0 0 0 0 0 0 0 0 0 0 0 0 0 0 0 0 0 0 0 0 0 0 0 0 0 0 0 0 0 0 0 0 0 0 0 0 0 0 0 0 0 0 0 0 0 0 0 0 0 0 0 0 0 0 0 0 0 0 0 0 0 0 0 0 0 0 0 0 0 0 0 0 0 0 0 0 0 0 0 0 0 0 0 0 0 0 0 0 0 0 0 0 0 0 0 0 0 0 0 0 0 0 0 0 0 0 0 0 0 0 0 0 0 0 0 0 0 0 0 0 0 0 0 0 0 0 0 0 0 0 0 0 0 0 0 0 0 0 0 0 0 0 0 0 0 0 0 0 0 0 0 0 0 0 0 0 0 0 0 0 0 0 0 0 0 0 0 0 0 0 0 0 0 0 0 0 0 0 0 0 0 0 0 0 0 0 0 0 0 0 0 0 0 0 0 0 0 0 0 0 0 0 0 0 0 0 0 0 0 0 0 0 0 0 0 0 0 0 0 0 0 0 0 0 0 0 0 0 0 0 0 0 0 0 0 0 0 0 0 0 0 0 -0.0284127 -0.0239909 -0.0171074 -0.00930939 -2.1684e-19 
0.02 0.02 0.02 0.02 0.02 0.02 0.02 0.02 0.02 0.02 0.02 0.02 0.02 0.02 0.02 0.02 0.02 0.02 0.02 0.02 0.0200001 0.0200001 0.0200001 0.0200001 0.0200001 0.0200001 0.0200002 0.0200002 0.0200002 0.0200003 0.0200003 0.0200004 0.0200005 0.0200006 0.0200006 0.0200008 0.0200009 0.020001 0.0200012 0.0200014 0.0200016 0.0200018 0.0200021 0.0200024 0.0200028 0.0200031 0.0200036 0.0200041 0.0200046 0.0200052 0.0200059 0.0200067 0.0200075 0.0200084 0.0200094 0.0200106 0.0200118 0.0200132 0.0200147 0.0200163 0.0200181 0.0200201 0.0200222 0.0200246 0.0200271 0.0200299 0.020033 0.0200363 0.0200399 0.0200438 0.0200481 0.0200527 0.0200577 0.0200631 0.0200689 0.0200752 0.020082 0.0200893 0.0200971 0.0201054 0.0201144 0.020124 0.0201342 0.0201451 0.0201567 0.0201689 0.0201819 0.0201957 0.0202101 0.0202253 0.0202413 0.020258 0.0202754 0.0202935 0.0203123 0.0203317 0.0203517 0.0203722 0.020393 0.0204142 0.0204356 0.0204569 0.0204781 0.0204989 0.020519 0.020538 0.0205557 0.0205716 0.0205852 0.0205959 0.0206032 0.0206064 0.0206047 0.0205976 0.0205842 0.020564 0.0205361 0.0205 0.0204552 0.0204013 0.0203379 0.0202651 0.0201825 0.0200904 0.0199889 0.0198784 0.0197595 0.0196333 0.0195007 0.0193628 0.0192206 0.0190748 0.0189262 0.0187753 0.0186224 0.0184678 0.0183115 0.0181529 0.0179917 0.0178269 0.0176576 0.0174824 0.0172999 0.0171085 0.0169068 0.0166933 0.0164674 0.0162293 0.0159809 0.015726 0.0154705 0.0152212 0.0149845 0.0147644 0.0145583 0.0143631 0.0141749 0.0139785 0.0137423 0.0133812 0.01274 0.0117376 0.010269 0.00866422 0.00708348 0.00555527 0.00412649 0.00274574 0.00140485 -1.15679e-06 -0.00138976 -0.00281467 -0.00422221 -0.00568658 -0.00731312 -0.00898322 -0.0107849 -0.0128515 -0.0149733 -0.0171484 -0.0195666 -0.0226654 -0.0255304 -0.0282529 -0.0305057 -0.0326116 -0.0357348 -0.0428779 -0.042586 0 0 0 0 0 0 0 0 0 0 0 0 0 0 0 0 0 0 0 0 0 0 0 0 0 0 0 0 0 0 0 0 0 0 0 0 0 0 0 0 0 0 0 0 0 0 0 0 0 0 0 0 0 0 0 0 0 0 0 0 0 0 0 0 0 0 0 0 0 0 0 0 0 0 0 0 0 0 0 0 0 0 0 0 0 0 0 0 0 0 0 0 0 0 0 0 0 0 0 0 0 0 0 0 0 0 0 0 0 0 0 0 0 0 0 0 0 0 0 0 0 0 0 0 0 0 0 0 0 0 0 0 0 0 0 0 0 0 0 0 0 0 0 0 0 0 0 0 0 0 0 0 0 0 0 0 0 0 0 0 0 0 0 0 0 0 0 0 0 0 0 0 0 0 0 0 0 0 0 0 0 0 0 0 0 0 0 0 0 0 0 0 0 0 0 0 0 0 0 0 0 0 0 0 0 0 0 0 0 0 0 0 0 0 0 0 0 0 0 0 0 0 0 0 0 0 0 0 0 0 0 0 0 0 0 0 0 0 0 0 0 0 0 0 0 0 0 0 0 0 0 0 0 0 0 0 0 0 0 0 0 0 0 0 0 0 0 0 0 0 0 0 0 0 0 0 0 0 0 0 0 0 0 0 0 0 0 0 0 0 0 0 0 0 0 0 0 0 0 0 0 0 0 0 0 0 0 0 0 0 0 0 0 0 0 0 0 0 0 0 0 0 0 0 0 0 0 0 0 0 0 0 0 0 0 0 0 0 0 0 0 0 0 0 0 0 0 0 0 0 0 0 0 0 0 0 0 0 0 0 0 0 0 0 0 0 0 0 0 0 0 0 0 0 0 0 0 0 0 0 0 0 0 0 0 0 0 0 0 0 0 0 0 0 0 0 0 -0.0367359 -0.0409634 -0.0430274 -0.0437192 -0.043976 -0.0440717 -0.0441072 -0.0441155 -0.0441078 -0.0440882 -0.0440578 -0.0440172 -0.0439668 -0.0439067 -0.0438373 -0.0437588 -0.0436718 -0.0435764 -0.0434724 -0.0433592 -0.0432349 -0.0430955 -0.0429332 -0.0427326 -0.0424574 -0.0419879 -0.0410396 -0.0395516 -0.0377085 -0.0350207 -0.0308536 -0.0254323 -0.018753 -0.010637 6.50521e-19 
0.02 0.02 0.02 0.02 0.02 0.02 0.02 0.02 0.02 0.02 0.02 0.02 0.02 0.02 0.02 0.02 0.02 0.02 0.02 0.02 0.0200001 0.0200001 0.0200001 0.0200001 0.0200001 0.0200001 0.0200002 0.0200002 0.0200002 0.0200003 0.0200003 0.0200004 0.0200004 0.0200005 0.0200006 0.0200007 0.0200008 0.020001 0.0200011 0.0200013 0.0200015 0.0200017 0.020002 0.0200023 0.0200026 0.020003 0.0200034 0.0200039 0.0200044 0.020005 0.0200056 0.0200063 0.0200071 0.020008 0.020009 0.0200101 0.0200112 0.0200125 0.0200139 0.0200155 0.0200172 0.0200191 0.0200211 0.0200234 0.0200258 0.0200285 0.0200314 0.0200345 0.0200379 0.0200417 0.0200457 0.0200501 0.0200548 0.02006 0.0200655 0.0200715 0.0200779 0.0200849 0.0200923 0.0201003 0.0201089 0.0201181 0.0201278 0.0201383 0.0201494 0.0201611 0.0201736 0.0201868 0.0202007 0.0202154 0.0202308 0.0202469 0.0202638 0.0202813 0.0202995 0.0203184 0.0203379 0.0203578 0.0203782 0.020399 0.0204199 0.020441 0.0204618 0.0204824 0.0205023 0.0205214 0.0205391 0.0205551 0.020569 0.0205802 0.020588 0.020592 0.0205913 0.0205853 0.0205733 0.0205546 0.0205285 0.0204945 0.0204521 0.0204008 0.0203403 0.0202706 0.0201915 0.0201032 0.0200059 0.0198999 0.019786 0.0196649 0.0195376 0.019405 0.0192679 0.0191271 0.0189834 0.0188371 0.0186887 0.0185383 0.0183857 0.0182307 0.0180726 0.0179107 0.0177439 0.0175711 0.017391 0.0172023 0.0170038 0.0167949 0.0165753 0.0163463 0.0161102 0.0158709 0.0156331 0.015401 0.0151762 0.0149571 0.0147372 0.0145063 0.0142586 0.0139891 0.0136718 0.0132247 0.0125225 0.0114543 0.0100984 0.00854678 0.00693934 0.00540827 0.00395161 0.0025226 0.0011142 -0.000328965 -0.00173845 -0.0031846 -0.00463997 -0.00615347 -0.00769839 -0.00936752 -0.011162 -0.0131583 -0.0152022 -0.017391 -0.0198608 -0.0225738 -0.0252404 -0.0278425 -0.0301813 -0.0326043 -0.0356083 -0.0395426 -0.0427713 -0.0447429 -0.0469522 -0.0490314 -0.0508688 -0.0523293 -0.053366 -0.0546037 -0.0559577 -0.0574808 -0.058986 -0.063631 -0.075029 0 0 0 0 0 0 0 0 0 0 0 0 0 0 0 0 0 0 0 0 0 0 0 0 0 0 0 0 0 0 0 0 0 0 0 0 0 0 0 0 0 0 0 0 0 0 0 0 0 0 0 0 0 0 0 0 0 0 0 0 0 0 0 0 0 0 0 0 0 0 0 0 0 0 0 0 0 0 0 0 0 0 0 0 0 0 0 0 0 0 0 0 0 0 0 0 0 0 0 0 0 0 0 0 0 0 0 0 0 0 0 0 0 0 0 0 0 0 0 0 0 0 0 0 0 0 0 0 0 0 0 0 0 0 0 0 0 0 0 0 0 0 0 0 0 0 0 0 0 0 0 0 0 0 0 0 0 0 0 0 0 0 0 0 0 0 0 0 0 0 0 0 0 0 0 0 0 0 0 0 0 0 0 0 0 0 0 0 -0.04714 -0.0504412 -0.0513334 -0.0511158 -0.0502636 -0.0496985 -0.0494329 -0.0492766 -0.0491852 -0.0491422 -0.0491397 -0.0491718 -0.0492343 -0.0493245 -0.0494405 -0.0495809 -0.0497443 -0.0499292 -0.0501341 -0.0503521 -0.0505358 -0.0505735 -0.0504899 -0.0505575 -0.0506931 -0.0508651 -0.0510585 -0.0512636 -0.0514745 -0.0516879 -0.0519036 -0.052124 -0.0523533 -0.0525977 -0.0528654 -0.0531664 -0.0535086 -0.053892 -0.0543077 -0.0547441 -0.0551872 -0.055618 -0.0560076 -0.0563146 -0.0565065 -0.0565848 -0.0565773 -0.0565251 -0.0564648 -0.0564233 -0.0564127 -0.0564313 -0.0564397 -0.0563847 -0.0562244 -0.0559576 -0.0556021 -0.0552122 -0.0548124 -0.0544393 -0.054119 -0.053848 -0.0536392 -0.0534789 -0.0533519 -0.0532484 -0.0531591 -0.0530752 -0.0529937 -0.0529129 -0.0528321 -0.0527512 -0.0526708 -0.0525913 -0.0525124 -0.0524336 -0.0523532 -0.0522697 -0.0521812 -0.052086 -0.0519857 -0.0518834 -0.0517875 -0.051761 -0.0518553 -0.0521219 -0.0535591 -0.0559855 -0.063051 0 0 0 0 0 0 0 0 0 0 0 0 0 0 0 0 0 0 0 0 0 0 0 0 0 0 0 0 0 0 0 0 0 0 0 0 0 0 0 0 0 0 0 0 0 0 0 0 0 0 0 -0.0489476 -0.0533067 -0.0545432 -0.0549152 -0.0549606 -0.0548511 -0.0546644 -0.0544328 -0.054178 -0.0539102 -0.0536314 -0.0533266 -0.0529303 -0.0523712 -0.0519273 -0.0515747 -0.0512595 -0.0509676 -0.0506919 -0.0504282 -0.0501745 -0.0499291 -0.0496909 -0.0494589 -0.049232 -0.0490093 -0.0487896 -0.0485718 -0.0483548 -0.0481378 -0.0479204 -0.0477028 -0.0474859 -0.0472714 -0.0470616 -0.0468594 -0.0466675 -0.0464884 -0.046324 -0.0461747 -0.0460401 -0.0459187 -0.0458077 -0.045704 -0.0456038 -0.0455033 -0.0453985 -0.0452851 -0.045158 -0.0450108 -0.0448352 -0.0446206 -0.0443507 -0.0439993 -0.0435328 -0.0429264 -0.0422863 -0.0415688 -0.0421129 -0.0431312 -0.0437019 -0.0439632 -0.0440702 -0.0441116 -0.0441228 -0.0441164 -0.0440971 -0.0440666 -0.0440254 -0.043974 -0.0439128 -0.0438423 -0.0437631 -0.0436756 -0.0435804 -0.0434773 -0.0433658 -0.0432439 -0.0431076 -0.0429483 -0.0427465 -0.0424503 -0.041946 -0.0410716 -0.039737 -0.0378564 -0.0351057 -0.0311746 -0.026072 -0.0196852 -0.0114322 -1.73472e-18 
0.02 0.02 0.02 0.02 0.02 0.02 0.02 0.02 0.02 0.02 0.02 0.02 0.02 0.02 0.02 0.02 0.02 0.02 0.02 0.02 0.02 0.0200001 0.0200001 0.0200001 0.0200001 0.0200001 0.0200002 0.0200002 0.0200002 0.0200003 0.0200003 0.0200004 0.0200004 0.0200005 0.0200006 0.0200007 0.0200008 0.0200009 0.0200011 0.0200012 0.0200014 0.0200016 0.0200019 0.0200022 0.0200025 0.0200028 0.0200032 0.0200037 0.0200042 0.0200047 0.0200053 0.020006 0.0200067 0.0200076 0.0200085 0.0200095 0.0200106 0.0200118 0.0200131 0.0200146 0.0200162 0.020018 0.0200199 0.020022 0.0200243 0.0200268 0.0200295 0.0200324 0.0200357 0.0200392 0.020043 0.0200471 0.0200516 0.0200564 0.0200616 0.0200673 0.0200734 0.0200799 0.020087 0.0200945 0.0201026 0.0201113 0.0201206 0.0201305 0.0201411 0.0201523 0.0201642 0.0201768 0.0201901 0.0202041 0.0202188 0.0202343 0.0202505 0.0202674 0.020285 0.0203032 0.0203221 0.0203414 0.0203613 0.0203815 0.020402 0.0204226 0.0204431 0.0204634 0.0204831 0.020502 0.0205198 0.020536 0.0205501 0.0205617 0.0205702 0.0205749 0.0205753 0.0205706 0.02056 0.0205431 0.020519 0.0204873 0.0204475 0.020399 0.0203418 0.0202756 0.0202004 0.0201163 0.0200235 0.0199225 0.0198138 0.0196982 0.0195765 0.0194495 0.0193179 0.0191826 0.019044 0.0189028 0.0187593 0.0186134 0.0184652 0.0183142 0.01816 0.0180018 0.0178385 0.0176693 0.0174929 0.0173085 0.0171152 0.0169129 0.0167022 0.0164846 0.0162626 0.0160392 0.0158169 0.0155966 0.0153762 0.0151495 0.014908 0.0146421 0.0143421 0.014 0.0135953 0.0130675 0.0123139 0.0112593 0.00990799 0.00838815 0.00682727 0.00529194 0.00378872 0.00230411 0.000835963 -0.000632573 -0.0020799 -0.00354877 -0.00503214 -0.00656983 -0.00814631 -0.00981609 -0.0116285 -0.0135605 -0.0156237 -0.0178024 -0.0202431 -0.0227626 -0.02534 -0.0278541 -0.0302954 -0.0329058 -0.035921 -0.0390893 -0.0420883 -0.0443397 -0.0465531 -0.048539 -0.0503063 -0.0518176 -0.0531732 -0.0545672 -0.0560871 -0.0579066 -0.0587912 -0.0618988 -0.0662939 -0.0665259 -0.0654887 -0.0651831 -0.0653826 -0.0656905 -0.0657328 -0.0651247 -0.0647747 -0.0646293 -0.0646997 -0.0658492 -0.0743412 0 0 0 0 0 0 0 0 0 0 0 0 0 0 0 0 0 0 0 0 0 0 0 0 0 0 0 0 0 0 0 0 0 -0.0510225 -0.0553238 -0.0569768 -0.0578414 -0.0583455 -0.0586063 -0.0587596 -0.0588626 -0.0589533 -0.0589855 -0.0590168 -0.0591982 -0.0610668 -0.0688991 -0.0650708 0 0 0 0 0 0 0 0 0 0 0 0 0 0 0 0 0 0 0 0 0 0 0 0 0 0 0 0 0 0 0 0 0 0 0 0 0 0 0 0 0 0 0 0 0 0 0 0 0 0 0 0 0 0 0 0 0 0 0 0 0 0 0 0 0 0 0 0 0 0 0 0 0 0 0 0 0 0 0 0 0 0 0 0 0 0 0 0 0 0 0 0 0 0 0 0 0 0 0 0 0 0 0 0 0 0 0 0 0 0 0 0 0 0 0 0 0 0 0 0 0 0 0 -0.0569256 -0.0574734 -0.0558729 -0.0546807 -0.0535332 -0.052097 -0.0517153 -0.0515837 -0.0511667 -0.0505197 -0.0500238 -0.0496959 -0.0494793 -0.0493397 -0.0492576 -0.0492228 -0.0492273 -0.0492649 -0.0493315 -0.0494239 -0.04954 -0.0496779 -0.049836 -0.05001 -0.0501845 -0.0503251 -0.0503952 -0.0504312 -0.0505232 -0.0506631 -0.0508358 -0.0510296 -0.0512355 -0.0514473 -0.0516619 -0.0518788 -0.0521008 -0.0523319 -0.0525784 -0.0528491 -0.0531548 -0.0535033 -0.0538934 -0.0543168 -0.0547578 -0.0551968 -0.0556155 -0.0559867 -0.0562819 -0.0564728 -0.0565595 -0.0565617 -0.0565208 -0.0564674 -0.0564348 -0.0564233 -0.0564304 -0.0564089 -0.056343 -0.0561648 -0.0559085 -0.0555539 -0.0551701 -0.0547974 -0.054427 -0.0541216 -0.0538554 -0.0536494 -0.0534896 -0.053364 -0.0532589 -0.0531701 -0.0530865 -0.0530049 -0.0529237 -0.0528422 -0.0527604 -0.0526785 -0.052597 -0.0525156 -0.0524336 -0.0523497 -0.0522625 -0.0521703 -0.0520719 -0.0519712 -0.0518768 -0.0518016 -0.0518343 -0.0521314 -0.0525652 -0.0538146 -0.0554215 -0.0571332 -0.0572775 -0.0566292 -0.0568876 -0.0573607 -0.0579082 -0.0584642 -0.0589598 -0.059327 -0.0594762 -0.0594088 -0.059143 -0.059227 -0.0594542 -0.0597517 -0.0601208 -0.0605758 -0.061136 -0.0618308 -0.0626179 -0.0636342 -0.0645039 -0.0654982 -0.0665016 -0.0666492 -0.0667114 -0.0688221 -0.0653054 -0.0643845 -0.0665285 -0.0679405 -0.0630118 -0.0618534 -0.062413 -0.0610417 -0.0610933 -0.0611636 -0.0611957 -0.0612077 -0.0612007 -0.0611484 -0.060999 -0.0605785 -0.0597387 -0.059086 -0.0586434 -0.0582898 -0.057991 -0.0576899 -0.0572485 -0.0564461 -0.055141 -0.0541115 -0.0542504 -0.0547216 -0.0549592 -0.0549796 -0.0548679 -0.054685 -0.0544558 -0.0542016 -0.0539297 -0.0536358 -0.0533044 -0.0529131 -0.0524595 -0.052054 -0.0516953 -0.0513694 -0.0510666 -0.0507805 -0.0505072 -0.0502442 -0.04999 -0.0497433 -0.049503 -0.0492682 -0.0490379 -0.0488111 -0.0485869 -0.0483645 -0.0481434 -0.0479234 -0.047705 -0.0474894 -0.0472781 -0.0470733 -0.0468776 -0.046693 -0.0465215 -0.0463641 -0.0462207 -0.0460904 -0.0459712 -0.0458603 -0.0457541 -0.045649 -0.0455405 -0.0454239 -0.0452933 -0.0451413 -0.0449591 -0.0447357 -0.0444594 -0.04412 -0.0437139 -0.0432541 -0.0428052 -0.0424511 -0.0424207 -0.0428351 -0.0433526 -0.0437436 -0.0439606 -0.0440622 -0.0441048 -0.0441176 -0.0441125 -0.0440941 -0.0440639 -0.0440227 -0.043971 -0.0439092 -0.0438379 -0.0437579 -0.0436697 -0.0435739 -0.0434704 -0.0433586 -0.0432363 -0.0430989 -0.0429352 -0.0427183 -0.0423887 -0.0418488 -0.0409815 -0.0396764 -0.0377836 -0.0350698 -0.0313417 -0.0265078 -0.0203046 -0.0119446 2.38524e-18 