# vtk DataFile Version 2.0
iteration 1944
ASCII

DATASET STRUCTURED_POINTS
DIMENSIONS 621 64 1
ORIGIN 0 0 0
SPACING 0.00161031 0.00161031 0.00161031

POINT_DATA 39744
SCALARS P float 1
LOOKUP_TABLE default
0 0 0 0 0 0 0 0 0 0 0 0 0 0 0 0 0 0 0 0 0 0 0 0 0 0 0 0 0 0 0 0 0 0 0 0 0 0 0 0 0 0 0 0 0 0 0 0 0 0 0 0 0 0 0 0 0 0 0 0 0 0 0 0 0 0 0 0 0 0 0 0 0 0 0 0 0 0 0 0 0 0 0 0 0 0 0 0 0 0 0 0 0 0 0 0 0 0 0 0 0 0 0 0 0 0 0 0 0 0 0 0 0 0 0 0 0 0 0 0 0 0 0 0 0 0 0 0 0 0 0 0 0 0 0 0 0 0 0 0 0 0 0 0 0 0 0 0 0 0 0 0 0 0 0 0 0 0 0 0 0 0 0 0 0 0 0 0 0 0 0 0 0 0 0 0 0 0 0 0 0 0 0 0 0 0 0 0 0 0 0 0 0 0 0 0 0 0 0 0 0 0 0 0 0 0 0 0 0 0 0 0 0 0 0 0 0 0 0 0 0 0 0 0 0 0 0 0 0 0 0 0 0 0 0 0 0 0 0 0 0 0 0 0 0 0 0 0 0 0 0 0 0 0 0 0 0 0 0 0 0 0 0 0 0 0 0 0 0 0 0 0 0 0 0 0 0 0 0 0 0 0 0 0 0 0 0 0 0 0 0 0 0 0 0 0 0 0 0 0 0 0 0 0 0 0 0 0 0 0 0 0 0 0 0 0 0 0 0 0 0 0 0 0 0 0 0 0 0 0 0 0 0 0 0 0 0 0 0 0 0 0 0 0 0 0 0 0 0 0 0 0 0 0 0 0 0 0 0 0 0 0 0 0 0 0 0 0 0 0 0 0 0 0 0 0 0 0 0 0 0 0 0 0 0 0 0 0 0 0 0 0 0 0 0 0 0 0 0 0 0 0 0 0 0 0 0 0 0 0 0 0 0 0 0 0 0 0 0 0 0 0 0 0 0 0 0 0 0 0 0 0 0 0 0 0 0 0 0 0 0 0 0 0 0 0 0 0 0 0 0 0 0 0 0 0 0 0 0 0 0 0 0 0 0 0 0 0 0 0 0 0 0 0 0 0 0 0 0 0 0 0 0 0 0 0 0 0 0 0 0 0 0 0 0 0 0 0 0 0 0 0 0 0 0 0 0 0 0 0 0 0 0 0 0 0 0 0 0 0 0 0 0 0 0 0 0 0 0 0 0 0 0 0 0 0 0 0 0 0 0 0 0 0 0 0 0 0 0 0 0 0 0 0 0 0 0 0 0 0 0 0 0 0 0 0 0 0 0 0 0 0 0 0 0 0 0 0 0 0 0 0 0 0 0 0 0 0 0 0 0 0 0 0 0 0 0 0 0 0 0 0 0 0 0 0 0 0 0 0 0 0 0 0 0 0 0 0 0 0 0 
0.02 0.02 0.02 0.02 0.02 0.02 0.02 0.02 0.02 0.02 0.02 0.02 0.02 0.02 0.02 0.02 0.02 0.02 0.02 0.02 0.02 0.02 0.02 0.02 0.02 0.02 0.02 0.02 0.02 0.02 0.02 0.02 0.02 0.02 0.02 0.02 0.02 0.02 0.02 0.02 0.02 0.02 0.02 0.02 0.02 0.02 0.02 0.02 0.02 0.02 0.02 0.02 0.02 0.02 0.02 0.02 0.02 0.02 0.02 0.02 0.02 0.02 0.02 0.02 0.02 0.02 0.02 0.02 0.02 0.02 0.02 0.02 0.02 0.02 0.02 0.02 0.02 0.02 0.02 0.02 0.02 0.02 0.02 0.02 0.02 0.02 0.02 0.02 0.02 0.02 0.02 0.02 0.02 0.02 0.02 0.02 0.02 0.02 0.02 0.02 0.02 0.02 0.02 0.02 0.02 0.02 0.02 0.02 0.02 0.02 0.02 0.02 0.02 0.02 0.02 0.02 0.02 0.02 0.02 0.02 0.02 0.02 0.02 0.02 0.02 0.02 0.02 0.02 0.02 0.02 0.02 0.02 0.02 0.02 0.02 0.02 0.02 0.02 0.02 0.02 0.02 0.02 0.02 0.02 0.02 0.02 0.02 0.02 0.02 0.02 0.0200001 0.0200001 0.0200001 0.0200001 0.0200001 0.0200001 0.0200001 0.0200001 0.0200001 0.0200001 0.0200001 0.0200001 0.0200001 0.0200001 0.0200002 0.0200002 0.0200002 0.0200002 0.0200002 0.0200002 0.0200002 0.0200002 0.0200002 0.0200003 0.0200003 0.0200003 0.0200003 0.0200003 0.0200003 0.0200003 0.0200004 0.0200004 0.0200004 0.0200004 0.0200004 0.0200004 0.0200004 0.0200004 0.0200004 0.0200004 0.0200004 0.0200004 0.0200004 0.0200004 0.0200003 0.0200003 0.0200003 0.0200002 0.0200002 0.0200001 0.02 0.0199999 0.0199998 0.0199997 0.0199996 0.0199994 0.0199992 0.019999 0.0199988 0.0199986 0.0199983 0.019998 0.0199977 0.0199973 0.0199969 0.0199965 0.019996 0.0199955 0.019995 0.0199944 0.0199937 0.0199931 0.0199923 0.0199915 0.0199906 0.0199897 0.0199887 0.0199877 0.0199866 0.0199854 0.0199841 0.0199828 0.0199814 0.0199799 0.0199784 0.0199767 0.019975 0.0199732 0.0199713 0.0199694 0.0199673 0.0199652 0.019963 0.0199607 0.0199583 0.0199559 0.0199534 0.0199508 0.0199481 0.0199453 0.0199425 0.0199396 0.0199367 0.0199337 0.0199306 0.0199275 0.0199244 0.0199212 0.019918 0.0199147 0.0199115 0.0199082 0.0199049 0.0199016 0.0198983 0.019895 0.0198918 0.0198886 0.0198854 0.0198823 0.0198792 0.0198762 0.0198733 0.0198705 0.0198678 0.0198652 0.0198628 0.0198605 0.0198583 0.0198563 0.0198545 0.0198529 0.0198514 0.0198502 0.0198492 0.0198485 0.019848 0.0198477 0.0198477 0.0198481 0.0198486 0.0198495 0.0198508 0.0198523 0.0198541 0.0198563 0.0198589 0.0198618 0.0198651 0.0198687 0.0198727 0.019877 0.0198818 0.0198869 0.0198924 0.0198983 0.0199046 0.0199112 0.0199182 0.0199256 0.0199333 0.0199414 0.0199498 0.0199586 0.0199677 0.0199771 0.0199868 0.0199968 0.020007 0.0200176 0.0200283 0.0200392 0.0200504 0.0200617 0.0200731 0.0200847 0.0200964 0.0201081 0.0201199 0.0201317 0.0201435 0.0201552 0.0201669 0.0201784 0.0201899 0.0202011 0.0202122 0.0202231 0.0202337 0.020244 0.020254 0.0202637 0.020273 0.0202819 0.0202904 0.0202984 0.0203059 0.020313 0.0203195 0.0203254 0.0203308 0.0203356 0.0203398 0.0203433 0.0203462 0.0203484 0.0203499 0.0203508 0.0203509 0.0203503 0.020349 0.0203469 0.0203442 0.0203406 0.0203364 0.0203314 0.0203257 0.0203192 0.020312 0.0203041 0.0202955 0.0202862 0.0202763 0.0202656 0.0202544 0.0202425 0.02023 0.0202169 0.0202033 0.0201892 0.0201745 0.0201594 0.0201438 0.0201279 0.0201116 0.0200949 0.0200779 0.0200606 0.0200432 0.0200255 0.0200076 0.0199896 0.0199715 0.0199534 0.0199352 0.0199171 0.019899 0.019881 0.019863 0.0198452 0.0198276 0.0198101 0.0197929 0.0197758 0.019759 0.0197424 0.0197261 0.01971 0.0196943 0.0196789 0.019664 0.0196497 0.0196366 0.0196244 0.0196128 0.0196025 0.0195933 0.0195851 0.0195781 0.0195725 0.0195684 0.019566 0.0195655 0.0195668 0.01957 0.019576 0.0195839 0.0195945 0.0196081 0.0196249 0.0196453 0.0196696 0.019698 0.0197309 0.0197685 0.0198109 0.0198583 0.0199106 0.0199678 0.0200297 0.020096 0.0201664 0.0202404 0.0203176 0.0203973 0.0204786 0.0205609 0.0206429 0.0207235 0.0208013 0.0208746 0.0209415 0.0209998 0.0210463 0.021077 0.0210864 0.021069 0.0210286 0.0209247 0.0210138 0.0241679 0 0 0 0 0 0 0 0 0 0 0 0 0 0 0 0 0 0 0 0 0 0 0 0 0 0 0 0 0 0 0 0 0 0 0 0 0 0 0 0 0 0 0 0 0 0 0 0 0 0 0 0 0 0 0 0 0 0 0 0 0 0 0 0 0 0 0 0 0 0 0 0 0 0 0 0 0 0 0 0 0 0 0 0 0 0 0 0 0 0 0 0 0 0 0 0 0 0 0 0 0 0 0 0 0 0 0 0 0 0 0 0 0 0 0 0 0 0 0 0 0 0 0 0 0 0 0 0 0 0 0 0 0 0 0 0 0 0 0 0 0 0 0 0 0 0 0 0 0 0 0 0 0 0 0 0 0 0 0 0 
0.02 0.02 0.02 0.02 0.02 0.02 0.02 0.02 0.02 0.02 0.02 0.02 0.02 0.02 0.02 0.02 0.02 0.02 0.02 0.02 0.02 0.02 0.02 0.02 0.02 0.02 0.02 0.02 0.02 0.02 0.02 0.02 0.02 0.02 0.02 0.02 0.02 0.02 0.02 0.02 0.02 0.02 0.02 0.02 0.02 0.02 0.02 0.02 0.02 0.02 0.02 0.02 0.02 0.02 0.02 0.02 0.02 0.02 0.02 0.02 0.02 0.02 0.02 0.02 0.02 0.02 0.02 0.02 0.02 0.02 0.02 0.02 0.02 0.02 0.02 0.02 0.02 0.02 0.02 0.02 0.02 0.02 0.02 0.02 0.02 0.02 0.02 0.02 0.02 0.02 0.02 0.02 0.02 0.02 0.02 0.02 0.02 0.02 0.02 0.02 0.02 0.02 0.02 0.02 0.02 0.02 0.02 0.02 0.02 0.02 0.02 0.02 0.02 0.02 0.02 0.02 0.02 0.02 0.02 0.02 0.02 0.02 0.02 0.02 0.02 0.02 0.02 0.02 0.02 0.02 0.02 0.02 0.02 0.02 0.02 0.02 0.02 0.02 0.02 0.02 0.02 0.02 0.02 0.02 0.02 0.02 0.02 0.02 0.02 0.02 0.0200001 0.0200001 0.0200001 0.0200001 0.0200001 0.0200001 0.0200001 0.0200001 0.0200001 0.0200001 0.0200001 0.0200001 0.0200001 0.0200001 0.0200001 0.0200002 0.0200002 0.0200002 0.0200002 0.0200002 0.0200002 0.0200002 0.0200002 0.0200003 0.0200003 0.0200003 0.0200003 0.0200003 0.0200003 0.0200003 0.0200003 0.0200004 0.0200004 0.0200004 0.0200004 0.0200004 0.0200004 0.0200004 0.0200004 0.0200004 0.0200004 0.0200004 0.0200004 0.0200004 0.0200003 0.0200003 0.0200003 0.0200002 0.0200001 0.0200001 0.02 0.0199999 0.0199998 0.0199997 0.0199995 0.0199994 0.0199992 0.019999 0.0199988 0.0199986 0.0199983 0.019998 0.0199977 0.0199973 0.0199969 0.0199965 0.019996 0.0199955 0.019995 0.0199944 0.0199938 0.0199931 0.0199923 0.0199915 0.0199907 0.0199897 0.0199888 0.0199877 0.0199866 0.0199854 0.0199842 0.0199829 0.0199815 0.01998 0.0199784 0.0199768 0.0199751 0.0199733 0.0199714 0.0199695 0.0199674 0.0199653 0.0199631 0.0199608 0.0199585 0.019956 0.0199535 0.0199509 0.0199483 0.0199455 0.0199427 0.0199398 0.0199369 0.0199339 0.0199309 0.0199278 0.0199246 0.0199215 0.0199182 0.019915 0.0199117 0.0199084 0.0199052 0.0199019 0.0198986 0.0198953 0.0198921 0.0198888 0.0198857 0.0198825 0.0198795 0.0198765 0.0198736 0.0198708 0.0198681 0.0198655 0.019863 0.0198607 0.0198585 0.0198565 0.0198547 0.019853 0.0198516 0.0198503 0.0198493 0.0198485 0.019848 0.0198477 0.0198477 0.019848 0.0198485 0.0198494 0.0198506 0.0198521 0.0198539 0.019856 0.0198585 0.0198614 0.0198646 0.0198681 0.0198721 0.0198764 0.019881 0.0198861 0.0198915 0.0198973 0.0199035 0.0199101 0.019917 0.0199243 0.0199319 0.01994 0.0199483 0.019957 0.019966 0.0199753 0.0199849 0.0199948 0.020005 0.0200154 0.020026 0.0200368 0.0200479 0.0200591 0.0200704 0.0200819 0.0200935 0.0201051 0.0201168 0.0201284 0.0201401 0.0201518 0.0201633 0.0201748 0.0201861 0.0201973 0.0202083 0.020219 0.0202295 0.0202398 0.0202497 0.0202593 0.0202685 0.0202773 0.0202857 0.0202937 0.0203012 0.0203081 0.0203146 0.0203205 0.0203258 0.0203305 0.0203347 0.0203382 0.020341 0.0203432 0.0203447 0.0203455 0.0203456 0.020345 0.0203437 0.0203417 0.0203389 0.0203354 0.0203312 0.0203262 0.0203205 0.0203141 0.020307 0.0202992 0.0202906 0.0202814 0.0202715 0.020261 0.0202498 0.020238 0.0202257 0.0202127 0.0201992 0.0201852 0.0201707 0.0201557 0.0201403 0.0201245 0.0201083 0.0200918 0.0200749 0.0200578 0.0200405 0.0200229 0.0200052 0.0199874 0.0199695 0.0199515 0.0199335 0.0199154 0.0198974 0.0198795 0.0198617 0.019844 0.0198264 0.019809 0.0197917 0.0197746 0.0197577 0.0197411 0.0197247 0.0197086 0.0196928 0.0196777 0.0196631 0.0196491 0.0196361 0.019624 0.0196127 0.0196022 0.0195927 0.0195843 0.019577 0.019571 0.0195665 0.0195636 0.0195626 0.0195636 0.0195669 0.0195726 0.0195804 0.0195909 0.0196045 0.019621 0.0196407 0.0196643 0.0196918 0.0197235 0.0197599 0.019801 0.0198469 0.0198977 0.0199533 0.0200136 0.0200782 0.020147 0.0202193 0.0202948 0.0203727 0.0204524 0.0205329 0.0206133 0.0206923 0.0207685 0.0208404 0.0209061 0.0209633 0.021009 0.0210393 0.0210505 0.0210453 0.0210499 0.0210514 0.0210196 0.0214719 0.0213025 0.0208357 0.0205605 0.02038 0.0200248 0.0193399 0.0190114 0.0219873 0 0 0 0 0 0 0 0 0 0 0 0 0 0 0 0 0 0 0 0 0 0 0 0 0 0 0 0 0 0 0 0 0 0 0 0 0 0 0 0 0 0 0 0 0 0 0 0 0 0 0 0 0 0 0 0 0 0 0 0 0 0 0 0 0 0 0 0 0 0 0 0 0 0 0 0 0 0 0 0 0 0 0 0 0 0 0 0 0 0 0 0 0 0 0 0 0 0 0 0 0 0 0 0 0 0 0 0 0 0 0 0 0 0 0 0 0 0 0 0 0 0 0 0 0 0 0 0 0 0 0 0 0 0 0 0 0 0 0 0 0 0 0 0 0 0 0 0 0 0 0 0 
0.02 0.02 0.02 0.02 0.02 0.02 0.02 0.02 0.02 0.02 0.02 0.02 0.02 0.02 0.02 0.02 0.02 0.02 0.02 0.02 0.02 0.02 0.02 0.02 0.02 0.02 0.02 0.02 0.02 0.02 0.02 0.02 0.02 0.02 0.02 0.02 0.02 0.02 0.02 0.02 0.02 0.02 0.02 0.02 0.02 0.02 0.02 0.02 0.02 0.02 0.02 0.02 0.02 0.02 0.02 0.02 0.02 0.02 0.02 0.02 0.02 0.02 0.02 0.02 0.02 0.02 0.02 0.02 0.02 0.02 0.02 0.02 0.02 0.02 0.02 0.02 0.02 0.02 0.02 0.02 0.02 0.02 0.02 0.02 0.02 0.02 0.02 0.02 0.02 0.02 0.02 0.02 0.02 0.02 0.02 0.02 0.02 0.02 0.02 0.02 0.02 0.02 0.02 0.02 0.02 0.02 0.02 0.02 0.02 0.02 0.02 0.02 0.02 0.02 0.02 0.02 0.02 0.02 0.02 0.02 0.02 0.02 0.02 0.02 0.02 0.02 0.02 0.02 0.02 0.02 0.02 0.02 0.02 0.02 0.02 0.02 0.02 0.02 0.02 0.02 0.02 0.02 0.02 0.02 0.02 0.02 0.02 0.02 0.02 0.02 0.0200001 0.0200001 0.0200001 0.0200001 0.0200001 0.0200001 0.0200001 0.0200001 0.0200001 0.0200001 0.0200001 0.0200001 0.0200001 0.0200001 0.0200001 0.0200002 0.0200002 0.0200002 0.0200002 0.0200002 0.0200002 0.0200002 0.0200002 0.0200002 0.0200003 0.0200003 0.0200003 0.0200003 0.0200003 0.0200003 0.0200003 0.0200004 0.0200004 0.0200004 0.0200004 0.0200004 0.0200004 0.0200004 0.0200004 0.0200004 0.0200004 0.0200004 0.0200004 0.0200003 0.0200003 0.0200003 0.0200002 0.0200002 0.0200001 0.0200001 0.02 0.0199999 0.0199998 0.0199997 0.0199995 0.0199994 0.0199992 0.019999 0.0199988 0.0199985 0.0199983 0.019998 0.0199977 0.0199973 0.0199969 0.0199965 0.019996 0.0199955 0.019995 0.0199944 0.0199937 0.0199931 0.0199923 0.0199915 0.0199907 0.0199897 0.0199888 0.0199877 0.0199866 0.0199854 0.0199842 0.0199829 0.0199815 0.01998 0.0199785 0.0199769 0.0199752 0.0199734 0.0199715 0.0199696 0.0199675 0.0199654 0.0199632 0.019961 0.0199586 0.0199562 0.0199537 0.0199511 0.0199484 0.0199457 0.0199429 0.01994 0.0199371 0.0199341 0.0199311 0.019928 0.0199249 0.0199217 0.0199185 0.0199153 0.019912 0.0199088 0.0199055 0.0199022 0.0198989 0.0198957 0.0198924 0.0198892 0.019886 0.0198829 0.0198799 0.0198769 0.019874 0.0198712 0.0198685 0.0198659 0.0198634 0.0198611 0.0198589 0.0198569 0.019855 0.0198534 0.0198519 0.0198507 0.0198496 0.0198488 0.0198483 0.019848 0.0198479 0.0198481 0.0198487 0.0198495 0.0198506 0.0198521 0.0198538 0.0198559 0.0198584 0.0198612 0.0198643 0.0198678 0.0198717 0.0198759 0.0198805 0.0198855 0.0198908 0.0198965 0.0199026 0.0199091 0.0199159 0.0199231 0.0199306 0.0199385 0.0199467 0.0199553 0.0199641 0.0199733 0.0199828 0.0199925 0.0200025 0.0200128 0.0200233 0.020034 0.0200448 0.0200559 0.020067 0.0200783 0.0200897 0.0201011 0.0201126 0.0201241 0.0201356 0.0201471 0.0201584 0.0201697 0.0201808 0.0201918 0.0202026 0.0202132 0.0202235 0.0202335 0.0202432 0.0202526 0.0202616 0.0202703 0.0202785 0.0202863 0.0202936 0.0203003 0.0203066 0.0203124 0.0203175 0.0203221 0.0203261 0.0203294 0.0203322 0.0203342 0.0203356 0.0203363 0.0203364 0.0203357 0.0203343 0.0203322 0.0203294 0.0203259 0.0203216 0.0203167 0.020311 0.0203046 0.0202975 0.0202898 0.0202813 0.0202722 0.0202624 0.020252 0.020241 0.0202293 0.0202171 0.0202043 0.020191 0.0201772 0.0201629 0.0201481 0.0201329 0.0201174 0.0201014 0.0200851 0.0200686 0.0200517 0.0200347 0.0200174 0.02 0.0199824 0.0199647 0.019947 0.0199292 0.0199115 0.0198937 0.019876 0.0198583 0.0198408 0.0198233 0.019806 0.0197888 0.0197718 0.019755 0.0197384 0.0197221 0.0197063 0.0196909 0.0196759 0.0196617 0.0196483 0.0196355 0.0196234 0.0196121 0.0196015 0.0195919 0.0195833 0.0195758 0.0195695 0.0195646 0.0195614 0.0195599 0.0195604 0.0195631 0.0195682 0.019576 0.0195867 0.0195999 0.0196161 0.0196356 0.0196584 0.0196849 0.0197154 0.0197501 0.0197894 0.0198333 0.019882 0.0199353 0.0199933 0.0200555 0.0201218 0.0201916 0.0202645 0.0203399 0.0204169 0.0204949 0.0205726 0.0206491 0.0207228 0.0207922 0.0208556 0.0209107 0.0209547 0.0209847 0.0210013 0.0210211 0.0210847 0.0211741 0.0212027 0.0211958 0.0209922 0.0207187 0.0204353 0.0201687 0.0198077 0.019296 0.0189396 0.0190563 0.0187759 0.0173353 0.0173982 0 0 0 0 0 0 0 0 0 0 0 0 0 0 0 0 0 0 0 0 0 0 0 0 0 0 0 0 0 0 0 0 0 0 0 0 0 0 0 0 0 0 0 0 0 0 0 0 0 0 0 0 0 0 0 0 0 0 0 0 0 0 0 0 0 0 0 0 0 0 0 0 0 0 0 0 0 0 0 0 0 0 0 0 0 0 0 0 0 0 0 0 0 0 0 0 0 0 0 0 0 0 0 0 0 0 0 0 0 0 0 0 0 0 0 0 0 0 0 0 0 0 0 0 0 0 0 0 0 0 0 0 0 0 0 0 0 0 0 0 0 0 0 0 0 0 0 0 0 
0.02 0.02 0.02 0.02 0.02 0.02 0.02 0.02 0.02 0.02 0.02 0.02 0.02 0.02 0.02 0.02 0.02 0.02 0.02 0.02 0.02 0.02 0.02 0.02 0.02 0.02 0.02 0.02 0.02 0.02 0.02 0.02 0.02 0.02 0.02 0.02 0.02 0.02 0.02 0.02 0.02 0.02 0.02 0.02 0.02 0.02 0.02 0.02 0.02 0.02 0.02 0.02 0.02 0.02 0.02 0.02 0.02 0.02 0.02 0.02 0.02 0.02 0.02 0.02 0.02 0.02 0.02 0.02 0.02 0.02 0.02 0.02 0.02 0.02 0.02 0.02 0.02 0.02 0.02 0.02 0.02 0.02 0.02 0.02 0.02 0.02 0.02 0.02 0.02 0.02 0.02 0.02 0.02 0.02 0.02 0.02 0.02 0.02 0.02 0.02 0.02 0.02 0.02 0.02 0.02 0.02 0.02 0.02 0.02 0.02 0.02 0.02 0.02 0.02 0.02 0.02 0.02 0.02 0.02 0.02 0.02 0.02 0.02 0.02 0.02 0.02 0.02 0.02 0.02 0.02 0.02 0.02 0.02 0.02 0.02 0.02 0.02 0.02 0.02 0.02 0.02 0.02 0.02 0.02 0.02 0.02 0.02 0.02 0.02 0.02 0.02 0.0200001 0.0200001 0.0200001 0.0200001 0.0200001 0.0200001 0.0200001 0.0200001 0.0200001 0.0200001 0.0200001 0.0200001 0.0200001 0.0200001 0.0200002 0.0200002 0.0200002 0.0200002 0.0200002 0.0200002 0.0200002 0.0200002 0.0200002 0.0200003 0.0200003 0.0200003 0.0200003 0.0200003 0.0200003 0.0200003 0.0200003 0.0200003 0.0200004 0.0200004 0.0200004 0.0200004 0.0200004 0.0200004 0.0200004 0.0200004 0.0200004 0.0200003 0.0200003 0.0200003 0.0200003 0.0200002 0.0200002 0.0200001 0.02 0.02 0.0199999 0.0199998 0.0199996 0.0199995 0.0199993 0.0199992 0.019999 0.0199988 0.0199985 0.0199982 0.019998 0.0199976 0.0199973 0.0199969 0.0199965 0.019996 0.0199955 0.0199949 0.0199944 0.0199937 0.019993 0.0199923 0.0199915 0.0199906 0.0199897 0.0199888 0.0199877 0.0199866 0.0199855 0.0199842 0.0199829 0.0199815 0.0199801 0.0199785 0.0199769 0.0199752 0.0199735 0.0199716 0.0199697 0.0199676 0.0199655 0.0199634 0.0199611 0.0199588 0.0199564 0.0199539 0.0199513 0.0199487 0.0199459 0.0199432 0.0199403 0.0199374 0.0199345 0.0199314 0.0199284 0.0199253 0.0199221 0.0199189 0.0199157 0.0199125 0.0199092 0.019906 0.0199027 0.0198994 0.0198962 0.019893 0.0198898 0.0198866 0.0198835 0.0198805 0.0198775 0.0198746 0.0198718 0.0198691 0.0198665 0.019864 0.0198617 0.0198595 0.0198575 0.0198557 0.019854 0.0198525 0.0198512 0.0198502 0.0198494 0.0198488 0.0198484 0.0198484 0.0198485 0.019849 0.0198498 0.0198509 0.0198523 0.019854 0.019856 0.0198584 0.0198611 0.0198642 0.0198676 0.0198713 0.0198755 0.01988 0.0198848 0.0198901 0.0198957 0.0199016 0.019908 0.0199146 0.0199217 0.0199291 0.0199368 0.0199448 0.0199532 0.0199619 0.0199709 0.0199802 0.0199897 0.0199995 0.0200096 0.0200198 0.0200303 0.0200409 0.0200517 0.0200626 0.0200737 0.0200848 0.020096 0.0201072 0.0201184 0.0201296 0.0201408 0.0201519 0.0201629 0.0201737 0.0201844 0.0201949 0.0202052 0.0202152 0.020225 0.0202344 0.0202435 0.0202522 0.0202606 0.0202685 0.020276 0.020283 0.0202896 0.0202956 0.0203011 0.020306 0.0203104 0.0203141 0.0203173 0.0203198 0.0203217 0.0203229 0.0203235 0.0203234 0.0203226 0.0203211 0.0203189 0.020316 0.0203125 0.0203082 0.0203032 0.0202976 0.0202912 0.0202842 0.0202765 0.0202681 0.0202591 0.0202495 0.0202392 0.0202284 0.0202169 0.0202049 0.0201924 0.0201793 0.0201658 0.0201518 0.0201373 0.0201225 0.0201072 0.0200916 0.0200757 0.0200595 0.0200431 0.0200264 0.0200095 0.0199925 0.0199753 0.019958 0.0199407 0.0199233 0.0199058 0.0198884 0.019871 0.0198537 0.0198364 0.0198192 0.0198021 0.0197852 0.0197684 0.0197519 0.0197357 0.0197198 0.0197044 0.0196894 0.0196751 0.0196613 0.0196481 0.0196354 0.0196234 0.0196121 0.0196015 0.0195918 0.019583 0.0195752 0.0195687 0.0195635 0.0195598 0.0195578 0.0195577 0.0195597 0.019564 0.0195709 0.0195807 0.0195935 0.0196094 0.0196282 0.0196504 0.0196758 0.0197049 0.0197378 0.0197748 0.0198162 0.019862 0.0199123 0.019967 0.0200258 0.0200885 0.0201547 0.0202238 0.0202954 0.0203685 0.0204425 0.0205163 0.0205888 0.0206586 0.0207242 0.0207839 0.0208356 0.020877 0.020907 0.0209311 0.0209708 0.021054 0.0211615 0.0212021 0.0210743 0.0208461 0.020606 0.0203392 0.0200476 0.0197137 0.0193274 0.0190342 0.0187346 0.0182757 0.0165386 0.0174492 0 0 0 0 0 0 0 0 0 0 0 0 0 0 0 0 0 0 0 0 0 0 0 0 0 0 0 0 0 0 0 0 0 0 0 0 0 0 0 0 0 0 0 0 0 0 0 0 0 0 0 0 0 0 0 0 0 0 0 0 0 0 0 0 0 0 0 0 0 0 0 0 0 0 0 0 0 0 0 0 0 0 0 0 0 0 0 0 0 0 0 0 0 0 0 0 0 0 0 0 0 0 0 0 0 0 0 0 0 0 0 0 0 0 0 0 0 0 0 0 0 0 0 0 0 0 0 0 0 0 0 0 0 0 0 0 0 0 0 0 0 0 0 0 0 0 0 0 -2.1684e-19 
0.02 0.02 0.02 0.02 0.02 0.02 0.02 0.02 0.02 0.02 0.02 0.02 0.02 0.02 0.02 0.02 0.02 0.02 0.02 0.02 0.02 0.02 0.02 0.02 0.02 0.02 0.02 0.02 0.02 0.02 0.02 0.02 0.02 0.02 0.02 0.02 0.02 0.02 0.02 0.02 0.02 0.02 0.02 0.02 0.02 0.02 0.02 0.02 0.02 0.02 0.02 0.02 0.02 0.02 0.02 0.02 0.02 0.02 0.02 0.02 0.02 0.02 0.02 0.02 0.02 0.02 0.02 0.02 0.02 0.02 0.02 0.02 0.02 0.02 0.02 0.02 0.02 0.02 0.02 0.02 0.02 0.02 0.02 0.02 0.02 0.02 0.02 0.02 0.02 0.02 0.02 0.02 0.02 0.02 0.02 0.02 0.02 0.02 0.02 0.02 0.02 0.02 0.02 0.02 0.02 0.02 0.02 0.02 0.02 0.02 0.02 0.02 0.02 0.02 0.02 0.02 0.02 0.02 0.02 0.02 0.02 0.02 0.02 0.02 0.02 0.02 0.02 0.02 0.02 0.02 0.02 0.02 0.02 0.02 0.02 0.02 0.02 0.02 0.02 0.02 0.02 0.02 0.02 0.02 0.02 0.02 0.02 0.02 0.02 0.02 0.02 0.0200001 0.0200001 0.0200001 0.0200001 0.0200001 0.0200001 0.0200001 0.0200001 0.0200001 0.0200001 0.0200001 0.0200001 0.0200001 0.0200001 0.0200001 0.0200002 0.0200002 0.0200002 0.0200002 0.0200002 0.0200002 0.0200002 0.0200002 0.0200002 0.0200003 0.0200003 0.0200003 0.0200003 0.0200003 0.0200003 0.0200003 0.0200003 0.0200003 0.0200003 0.0200004 0.0200004 0.0200004 0.0200004 0.0200003 0.0200003 0.0200003 0.0200003 0.0200003 0.0200003 0.0200002 0.0200002 0.0200001 0.0200001 0.02 0.0199999 0.0199998 0.0199997 0.0199996 0.0199995 0.0199993 0.0199991 0.0199989 0.0199987 0.0199985 0.0199982 0.0199979 0.0199976 0.0199972 0.0199968 0.0199964 0.019996 0.0199955 0.0199949 0.0199943 0.0199937 0.019993 0.0199923 0.0199915 0.0199906 0.0199897 0.0199888 0.0199877 0.0199866 0.0199855 0.0199843 0.019983 0.0199816 0.0199801 0.0199786 0.019977 0.0199753 0.0199736 0.0199717 0.0199698 0.0199678 0.0199657 0.0199636 0.0199613 0.019959 0.0199566 0.0199541 0.0199516 0.019949 0.0199463 0.0199435 0.0199407 0.0199378 0.0199349 0.0199319 0.0199289 0.0199258 0.0199227 0.0199195 0.0199163 0.0199131 0.0199099 0.0199067 0.0199034 0.0199002 0.019897 0.0198938 0.0198906 0.0198874 0.0198844 0.0198813 0.0198784 0.0198755 0.0198727 0.01987 0.0198674 0.019865 0.0198626 0.0198604 0.0198584 0.0198566 0.0198549 0.0198534 0.0198521 0.019851 0.0198501 0.0198495 0.0198492 0.019849 0.0198492 0.0198496 0.0198503 0.0198514 0.0198527 0.0198543 0.0198563 0.0198585 0.0198612 0.0198641 0.0198674 0.0198711 0.0198751 0.0198795 0.0198842 0.0198893 0.0198947 0.0199005 0.0199067 0.0199132 0.01992 0.0199272 0.0199348 0.0199426 0.0199508 0.0199592 0.019968 0.019977 0.0199863 0.0199958 0.0200056 0.0200156 0.0200257 0.0200361 0.0200465 0.0200572 0.0200679 0.0200787 0.0200895 0.0201004 0.0201113 0.0201221 0.0201329 0.0201437 0.0201543 0.0201648 0.0201751 0.0201852 0.0201951 0.0202048 0.0202141 0.0202232 0.0202319 0.0202403 0.0202483 0.0202559 0.020263 0.0202697 0.0202759 0.0202816 0.0202868 0.0202914 0.0202954 0.0202989 0.0203018 0.0203041 0.0203057 0.0203067 0.0203071 0.0203068 0.0203059 0.0203043 0.020302 0.020299 0.0202954 0.0202911 0.0202861 0.0202805 0.0202742 0.0202672 0.0202596 0.0202514 0.0202425 0.0202331 0.020223 0.0202124 0.0202012 0.0201895 0.0201773 0.0201645 0.0201513 0.0201377 0.0201237 0.0201092 0.0200944 0.0200793 0.0200638 0.0200481 0.0200321 0.0200159 0.0199996 0.019983 0.0199663 0.0199496 0.0199327 0.0199158 0.0198988 0.0198818 0.0198649 0.019848 0.0198312 0.0198144 0.0197978 0.0197814 0.0197651 0.0197492 0.0197335 0.0197182 0.0197034 0.019689 0.0196751 0.0196616 0.0196486 0.0196361 0.0196242 0.0196129 0.0196024 0.0195926 0.0195837 0.0195758 0.0195689 0.0195634 0.0195592 0.0195566 0.0195558 0.019557 0.0195604 0.0195662 0.0195747 0.0195862 0.0196008 0.0196186 0.0196396 0.0196638 0.0196913 0.0197222 0.0197568 0.0197952 0.0198377 0.0198842 0.0199348 0.0199892 0.0200473 0.0201087 0.0201729 0.0202393 0.0203072 0.0203759 0.0204443 0.0205113 0.0205757 0.020636 0.0206906 0.0207376 0.0207757 0.0208057 0.0208356 0.0208829 0.0209594 0.0210378 0.0210479 0.020937 0.0207393 0.0204989 0.0202238 0.0199322 0.0196524 0.0193541 0.0189425 0.0185935 0.017806 0.015672 0.0147732 0.0148008 0 0 0 0 0 0 0 0 0 0 0 0 0 0 0 0 0 0 0 0 0 0 0 0 0 0 0 0 0 0 0 0 0 0 0 0 0 0 0 0 0 0 0 0 0 0 0 0 0 0 0 0 0 0 0 0 0 0 0 0 0 0 0 0 0 0 0 0 0 0 0 0 0 0 0 0 0 0 0 0 0 0 0 0 0 0 0 0 0 0 0 0 0 0 0 0 0 0 0 0 0 0 0 0 0 0 0 0 0 0 0 0 0 0 0 0 0 0 0 0 0 0 0 0 0 0 0 0 0 0 0 0 0 0 0 0 0 0 0 0 0 0 0 0 0 0 -0.00467338 -2.1684e-19 
0.02 0.02 0.02 0.02 0.02 0.02 0.02 0.02 0.02 0.02 0.02 0.02 0.02 0.02 0.02 0.02 0.02 0.02 0.02 0.02 0.02 0.02 0.02 0.02 0.02 0.02 0.02 0.02 0.02 0.02 0.02 0.02 0.02 0.02 0.02 0.02 0.02 0.02 0.02 0.02 0.02 0.02 0.02 0.02 0.02 0.02 0.02 0.02 0.02 0.02 0.02 0.02 0.02 0.02 0.02 0.02 0.02 0.02 0.02 0.02 0.02 0.02 0.02 0.02 0.02 0.02 0.02 0.02 0.02 0.02 0.02 0.02 0.02 0.02 0.02 0.02 0.02 0.02 0.02 0.02 0.02 0.02 0.02 0.02 0.02 0.02 0.02 0.02 0.02 0.02 0.02 0.02 0.02 0.02 0.02 0.02 0.02 0.02 0.02 0.02 0.02 0.02 0.02 0.02 0.02 0.02 0.02 0.02 0.02 0.02 0.02 0.02 0.02 0.02 0.02 0.02 0.02 0.02 0.02 0.02 0.02 0.02 0.02 0.02 0.02 0.02 0.02 0.02 0.02 0.02 0.02 0.02 0.02 0.02 0.02 0.02 0.02 0.02 0.02 0.02 0.02 0.02 0.02 0.02 0.02 0.02 0.02 0.02 0.02 0.02 0.02 0.02 0.0200001 0.0200001 0.0200001 0.0200001 0.0200001 0.0200001 0.0200001 0.0200001 0.0200001 0.0200001 0.0200001 0.0200001 0.0200001 0.0200001 0.0200001 0.0200002 0.0200002 0.0200002 0.0200002 0.0200002 0.0200002 0.0200002 0.0200002 0.0200002 0.0200003 0.0200003 0.0200003 0.0200003 0.0200003 0.0200003 0.0200003 0.0200003 0.0200003 0.0200003 0.0200003 0.0200003 0.0200003 0.0200003 0.0200003 0.0200003 0.0200003 0.0200003 0.0200002 0.0200002 0.0200001 0.0200001 0.02 0.02 0.0199999 0.0199998 0.0199997 0.0199995 0.0199994 0.0199992 0.0199991 0.0199989 0.0199987 0.0199984 0.0199981 0.0199979 0.0199975 0.0199972 0.0199968 0.0199964 0.0199959 0.0199954 0.0199949 0.0199943 0.0199937 0.019993 0.0199922 0.0199915 0.0199906 0.0199897 0.0199888 0.0199877 0.0199867 0.0199855 0.0199843 0.019983 0.0199816 0.0199802 0.0199787 0.0199771 0.0199755 0.0199737 0.0199719 0.01997 0.019968 0.019966 0.0199638 0.0199616 0.0199593 0.019957 0.0199545 0.019952 0.0199494 0.0199467 0.019944 0.0199412 0.0199384 0.0199355 0.0199325 0.0199295 0.0199265 0.0199234 0.0199203 0.0199171 0.0199139 0.0199107 0.0199075 0.0199043 0.0199011 0.0198979 0.0198948 0.0198916 0.0198885 0.0198854 0.0198824 0.0198795 0.0198766 0.0198739 0.0198712 0.0198686 0.0198662 0.0198638 0.0198616 0.0198596 0.0198577 0.019856 0.0198545 0.0198532 0.0198521 0.0198512 0.0198506 0.0198501 0.01985 0.0198501 0.0198504 0.0198511 0.019852 0.0198533 0.0198548 0.0198567 0.0198589 0.0198614 0.0198642 0.0198674 0.0198709 0.0198748 0.019879 0.0198835 0.0198884 0.0198937 0.0198993 0.0199053 0.0199116 0.0199182 0.0199251 0.0199324 0.01994 0.0199479 0.0199561 0.0199645 0.0199732 0.0199822 0.0199914 0.0200009 0.0200105 0.0200203 0.0200303 0.0200404 0.0200506 0.0200609 0.0200713 0.0200818 0.0200922 0.0201027 0.0201131 0.0201235 0.0201338 0.020144 0.020154 0.0201639 0.0201735 0.020183 0.0201922 0.0202011 0.0202097 0.020218 0.0202259 0.0202335 0.0202406 0.0202473 0.0202536 0.0202594 0.0202647 0.0202695 0.0202738 0.0202775 0.0202806 0.0202832 0.0202852 0.0202865 0.0202873 0.0202874 0.020287 0.0202858 0.0202841 0.0202817 0.0202786 0.0202749 0.0202706 0.0202656 0.02026 0.0202537 0.0202469 0.0202394 0.0202313 0.0202227 0.0202134 0.0202036 0.0201933 0.0201824 0.020171 0.0201592 0.0201469 0.0201341 0.0201209 0.0201074 0.0200934 0.0200791 0.0200645 0.0200497 0.0200345 0.0200191 0.0200035 0.0199878 0.0199718 0.0199558 0.0199396 0.0199234 0.0199071 0.0198907 0.0198744 0.0198581 0.0198418 0.0198256 0.0198095 0.0197935 0.0197778 0.0197623 0.019747 0.0197321 0.0197174 0.0197032 0.0196893 0.0196758 0.0196626 0.0196499 0.0196377 0.019626 0.0196148 0.0196043 0.0195945 0.0195855 0.0195774 0.0195703 0.0195644 0.0195597 0.0195565 0.0195549 0.0195551 0.0195574 0.019562 0.019569 0.0195789 0.0195916 0.0196076 0.0196268 0.0196492 0.0196747 0.0197033 0.0197352 0.0197704 0.0198091 0.0198514 0.0198972 0.0199465 0.0199991 0.0200547 0.0201128 0.0201729 0.0202343 0.0202963 0.0203579 0.0204181 0.0204757 0.0205292 0.0205772 0.0206184 0.0206522 0.0206811 0.0207128 0.0207583 0.0208184 0.0208669 0.0208566 0.0207556 0.0205778 0.0203468 0.0200783 0.0197961 0.0195345 0.0192922 0.0189733 0.018429 0.0174744 0.0159668 0.0143097 0.012987 0 0 0 0 0 0 0 0 0 0 0 0 -0.0346954 -0.0391236 -0.0477855 0 0 0 0 0 0 0 0 0 0 0 0 0 0 0 0 0 0 0 0 0 0 0 0 0 0 0 0 0 0 0 0 0 0 0 0 0 0 0 0 0 0 0 0 0 0 0 0 0 0 0 0 0 0 0 0 0 0 0 0 0 0 0 0 0 0 0 0 0 0 0 0 0 0 0 0 0 0 0 0 0 0 0 0 0 0 0 0 0 0 0 0 0 0 0 0 0 0 0 0 0 0 0 0 0 0 0 0 0 0 0 0 0 0 0 0 0 0 0 0 0 0 0 0 0 0 0 0 0 0 0 -0.00909538 -8.67362e-19 