# vtk DataFile Version 2.0
iteration 918
ASCII

DATASET STRUCTURED_POINTS
DIMENSIONS 621 64 1
ORIGIN 0 0 0
SPACING 0.00161031 0.00161031 0.00161031

POINT_DATA 39744
SCALARS P float 1
LOOKUP_TABLE default
0 0 0 0 0 0 0 0 0 0 0 0 0 0 0 0 0 0 0 0 0 0 0 0 0 0 0 0 0 0 0 0 0 0 0 0 0 0 0 0 0 0 0 0 0 0 0 0 0 0 0 0 0 0 0 0 0 0 0 0 0 0 0 0 0 0 0 0 0 0 0 0 0 0 0 0 0 0 0 0 0 0 0 0 0 0 0 0 0 0 0 0 0 0 0 0 0 0 0 0 0 0 0 0 0 0 0 0 0 0 0 0 0 0 0 0 0 0 0 0 0 0 0 0 0 0 0 0 0 0 0 0 0 0 0 0 0 0 0 0 0 0 0 0 0 0 0 0 0 0 0 0 0 0 0 0 0 0 0 0 0 0 0 0 0 0 0 0 0 0 0 0 0 0 0 0 0 0 0 0 0 0 0 0 0 0 0 0 0 0 0 0 0 0 0 0 0 0 0 0 0 0 0 0 0 0 0 0 0 0 0 0 0 0 0 0 0 0 0 0 0 0 0 0 0 0 0 0 0 0 0 0 0 0 0 0 0 0 0 0 0 0 0 0 0 0 0 0 0 0 0 0 0 0 0 0 0 0 0 0 0 0 0 0 0 0 0 0 0 0 0 0 0 0 0 0 0 0 0 0 0 0 0 0 0 0 0 0 0 0 0 0 0 0 0 0 0 0 0 0 0 0 0 0 0 0 0 0 0 0 0 0 0 0 0 0 0 0 0 0 0 0 0 0 0 0 0 0 0 0 0 0 0 0 0 0 0 0 0 0 0 0 0 0 0 0 0 0 0 0 0 0 0 0 0 0 0 0 0 0 0 0 0 0 0 0 0 0 0 0 0 0 0 0 0 0 0 0 0 0 0 0 0 0 0 0 0 0 0 0 0 0 0 0 0 0 0 0 0 0 0 0 0 0 0 0 0 0 0 0 0 0 0 0 0 0 0 0 0 0 0 0 0 0 0 0 0 0 0 0 0 0 0 0 0 0 0 0 0 0 0 0 0 0 0 0 0 0 0 0 0 0 0 0 0 0 0 0 0 0 0 0 0 0 0 0 0 0 0 0 0 0 0 0 0 0 0 0 0 0 0 0 0 0 0 0 0 0 0 0 0 0 0 0 0 0 0 0 0 0 0 0 0 0 0 0 0 0 0 0 0 0 0 0 0 0 0 0 0 0 0 0 0 0 0 0 0 0 0 0 0 0 0 0 0 0 0 0 0 0 0 0 0 0 0 0 0 0 0 0 0 0 0 0 0 0 0 0 0 0 0 0 0 0 0 0 0 0 0 0 0 0 0 0 0 0 0 0 0 0 0 0 0 0 0 0 0 0 0 0 0 0 0 0 0 0 0 0 0 0 0 0 0 0 0 0 0 0 0 0 0 0 0 0 0 0 0 0 0 0 0 
0.02 0.02 0.02 0.02 0.02 0.02 0.02 0.02 0.02 0.02 0.02 0.02 0.02 0.02 0.02 0.02 0.02 0.02 0.02 0.02 0.02 0.02 0.02 0.02 0.02 0.02 0.02 0.02 0.02 0.02 0.02 0.02 0.02 0.02 0.02 0.0199999 0.0199999 0.0199999 0.0199999 0.0199999 0.0199999 0.0199999 0.0199999 0.0199998 0.0199998 0.0199998 0.0199998 0.0199997 0.0199997 0.0199997 0.0199996 0.0199996 0.0199995 0.0199995 0.0199994 0.0199994 0.0199993 0.0199992 0.0199992 0.0199991 0.019999 0.0199989 0.0199988 0.0199987 0.0199986 0.0199984 0.0199983 0.0199981 0.019998 0.0199978 0.0199976 0.0199974 0.0199972 0.019997 0.0199967 0.0199964 0.0199961 0.0199958 0.0199954 0.019995 0.0199946 0.0199941 0.0199936 0.019993 0.0199923 0.0199916 0.0199908 0.0199899 0.019989 0.019988 0.0199868 0.0199856 0.0199842 0.0199828 0.0199812 0.0199795 0.0199777 0.0199757 0.0199737 0.0199715 0.0199692 0.0199668 0.0199644 0.0199618 0.0199593 0.0199567 0.0199542 0.0199517 0.0199494 0.0199472 0.0199454 0.0199438 0.0199428 0.0199422 0.0199421 0.0199431 0.019945 0.0199478 0.0199518 0.0199573 0.0199645 0.0199733 0.0199841 0.0199971 0.0200124 0.0200301 0.0200505 0.0200736 0.0200995 0.0201282 0.0201599 0.0201944 0.0202319 0.020272 0.0203147 0.0203597 0.0204068 0.0204556 0.0205056 0.0205565 0.0206077 0.0206588 0.0207091 0.0207582 0.0208055 0.0208506 0.0208929 0.020932 0.0209674 0.0209989 0.0210261 0.0210487 0.0210667 0.02108 0.0210885 0.0210922 0.0210915 0.0210864 0.0210773 0.0210645 0.0210484 0.0210295 0.0210082 0.0209852 0.0209609 0.0209359 0.0209107 0.0208858 0.0208616 0.0208385 0.0208166 0.0207962 0.0207773 0.0207596 0.0207428 0.0207258 0.0207037 0.02066 0.0205891 0.02052 0.02044 0.0203422 0.0202221 0.020076 0.0199004 0.0196924 0.019449 0.0191687 0.0188479 0.0184837 0.0180899 0.017648 0.0173165 0.0173071 0.0179127 0.0201522 0 0 0 0 0 0 0 0 0 0 0 0 0 0 0 0 0 0 0 0 0 0 0 0 0 0 0 0 0 0 0 0 0 0 0 0 0 0 0 0 0 0 0 0 0 0 0 0 0 0 0 0 0 0 0 0 0 0 0 0 0 0 0 0 0 0 0 0 0 0 0 0 0 0 0 0 0 0 0 0 0 0 0 0 0 0 0 0 0 0 0 0 0 0 0 0 0 0 0 0 0 0 0 0 0 0 0 0 0 0 0 0 0 0 0 0 0 0 0 0 0 0 0 0 0 0 0 0 0 0 0 0 0 0 0 0 0 0 0 0 0 0 0 0 0 0 0 0 0 0 0 0 0 0 0 0 0 0 0 0 0 0 0 0 0 0 0 0 0 0 0 0 0 0 0 0 0 0 0 0 0 0 0 0 0 0 0 0 0 0 0 0 0 0 0 0 0 0 0 0 0 0 0 0 0 0 0 0 0 0 0 0 0 0 0 0 0 0 0 0 0 0 0 0 0 0 0 0 0 0 0 0 0 0 0 0 0 0 0 0 0 0 0 0 0 0 0 0 0 0 0 0 0 0 0 0 0 0 0 0 0 0 0 0 0 0 0 0 0 0 0 0 0 0 0 0 0 0 0 0 0 0 0 0 0 0 0 0 0 0 0 0 0 0 0 0 0 0 0 0 0 0 0 0 0 0 0 0 0 0 0 0 0 0 0 0 0 0 0 0 0 0 0 0 0 0 0 0 0 0 0 0 0 0 0 0 0 0 0 0 0 0 0 0 0 0 0 0 0 0 0 0 0 0 0 0 0 0 0 0 0 0 0 0 0 0 0 0 0 0 0 0 0 0 0 0 0 0 0 0 0 0 0 0 0 0 0 0 0 0 0 0 0 0 0 0 0 0 0 0 0 0 0 0 0 0 0 0 0 0 0 0 0 0 0 0 0 0 0 0 0 0 0 0 0 
0.02 0.02 0.02 0.02 0.02 0.02 0.02 0.02 0.02 0.02 0.02 0.02 0.02 0.02 0.02 0.02 0.02 0.02 0.02 0.02 0.02 0.02 0.02 0.02 0.02 0.02 0.02 0.02 0.02 0.02 0.02 0.02 0.02 0.02 0.02 0.0199999 0.0199999 0.0199999 0.0199999 0.0199999 0.0199999 0.0199999 0.0199999 0.0199998 0.0199998 0.0199998 0.0199998 0.0199997 0.0199997 0.0199997 0.0199996 0.0199996 0.0199995 0.0199995 0.0199994 0.0199994 0.0199993 0.0199992 0.0199992 0.0199991 0.019999 0.0199989 0.0199988 0.0199987 0.0199986 0.0199984 0.0199983 0.0199982 0.019998 0.0199978 0.0199977 0.0199975 0.0199973 0.019997 0.0199968 0.0199965 0.0199962 0.0199959 0.0199955 0.0199951 0.0199947 0.0199942 0.0199937 0.0199931 0.0199924 0.0199917 0.0199909 0.0199901 0.0199891 0.0199881 0.019987 0.0199857 0.0199844 0.019983 0.0199814 0.0199797 0.0199779 0.019976 0.0199739 0.0199718 0.0199695 0.0199672 0.0199647 0.0199622 0.0199597 0.0199571 0.0199546 0.0199522 0.0199499 0.0199477 0.0199459 0.0199443 0.0199433 0.0199427 0.0199429 0.0199438 0.0199457 0.0199487 0.0199527 0.0199583 0.0199655 0.0199744 0.0199852 0.0199981 0.0200133 0.0200309 0.0200511 0.020074 0.0200996 0.020128 0.0201594 0.0201936 0.0202306 0.0202704 0.0203127 0.0203573 0.020404 0.0204523 0.020502 0.0205525 0.0206033 0.020654 0.020704 0.0207528 0.0207999 0.0208448 0.0208869 0.0209259 0.0209613 0.0209927 0.02102 0.0210428 0.021061 0.0210744 0.0210832 0.0210874 0.021087 0.0210823 0.0210737 0.0210613 0.0210457 0.0210272 0.0210063 0.0209837 0.0209597 0.0209349 0.0209098 0.0208849 0.0208607 0.0208374 0.0208153 0.0207946 0.0207752 0.0207569 0.0207392 0.0207198 0.0206933 0.0206511 0.0205916 0.0205241 0.0204434 0.0203447 0.020224 0.0200776 0.0199018 0.0196941 0.019452 0.0191742 0.0188604 0.0185044 0.0181487 0.0177981 0.017468 0.0174043 0.0168339 0.017366 0.0165045 0.015367 0.0144751 0.0135951 0.0126208 0.0115104 0.0102711 0.00930713 0.00840581 0.00882733 0 0 0 0 0 0 0 0 0 0 0 0 0 0 0 0 0 0 0 0 0 0 0 0 0 0 0 0 0 0 0 0 0 0 0 0 0 0 0 0 0 0 0 0 0 0 0 0 0 0 0 0 0 0 0 0 0 0 0 0 0 0 0 0 0 0 0 0 0 0 0 0 0 0 0 0 0 0 0 0 0 0 0 0 0 0 0 0 0 0 0 0 0 0 0 0 0 0 0 0 0 0 0 0 0 0 0 0 0 0 0 0 0 0 0 0 0 0 0 0 0 0 0 0 0 0 0 0 0 0 0 0 0 0 0 0 0 0 0 0 0 0 0 0 0 0 0 0 0 0 0 0 0 0 0 0 0 0 0 0 0 0 0 0 0 0 0 0 0 0 0 0 0 0 0 0 0 0 0 0 0 0 0 0 0 0 0 0 0 0 0 0 0 0 0 0 0 0 0 0 0 0 0 0 0 0 0 0 0 0 0 0 0 0 0 0 0 0 0 0 0 0 0 0 0 0 0 0 0 0 0 0 0 0 0 0 0 0 0 0 0 0 0 0 0 0 0 0 0 0 0 0 0 0 0 0 0 0 0 0 0 0 0 0 0 0 0 0 0 0 0 0 0 0 0 0 0 0 0 0 0 0 0 0 0 0 0 0 0 0 0 0 0 0 0 0 0 0 0 0 0 0 0 0 0 0 0 0 0 0 0 0 0 0 0 0 0 0 0 0 0 0 0 0 0 0 0 0 0 0 0 0 0 0 0 0 0 0 0 0 0 0 0 0 0 0 0 0 0 0 0 0 0 0 0 0 0 0 0 0 0 0 0 0 0 0 0 0 0 0 0 0 0 0 0 0 0 0 0 0 0 0 0 0 0 0 0 0 0 0 0 0 0 0 0 0 0 0 0 0 0 0 0 0 0 0 0 0 0 0 0 0 0 0 0 
0.02 0.02 0.02 0.02 0.02 0.02 0.02 0.02 0.02 0.02 0.02 0.02 0.02 0.02 0.02 0.02 0.02 0.02 0.02 0.02 0.02 0.02 0.02 0.02 0.02 0.02 0.02 0.02 0.02 0.02 0.02 0.02 0.02 0.02 0.02 0.0199999 0.0199999 0.0199999 0.0199999 0.0199999 0.0199999 0.0199999 0.0199999 0.0199998 0.0199998 0.0199998 0.0199998 0.0199997 0.0199997 0.0199997 0.0199996 0.0199996 0.0199996 0.0199995 0.0199994 0.0199994 0.0199993 0.0199993 0.0199992 0.0199991 0.019999 0.0199989 0.0199988 0.0199987 0.0199986 0.0199985 0.0199983 0.0199982 0.019998 0.0199979 0.0199977 0.0199975 0.0199973 0.0199971 0.0199968 0.0199966 0.0199963 0.0199959 0.0199956 0.0199952 0.0199948 0.0199943 0.0199938 0.0199932 0.0199925 0.0199918 0.0199911 0.0199902 0.0199893 0.0199883 0.0199871 0.0199859 0.0199846 0.0199832 0.0199816 0.01998 0.0199782 0.0199763 0.0199743 0.0199721 0.0199699 0.0199675 0.0199651 0.0199626 0.0199601 0.0199576 0.0199551 0.0199527 0.0199504 0.0199483 0.0199464 0.0199449 0.0199438 0.0199433 0.0199434 0.0199444 0.0199463 0.0199492 0.0199535 0.0199592 0.0199664 0.0199753 0.0199861 0.0199991 0.0200143 0.0200318 0.0200518 0.0200745 0.0200998 0.0201279 0.0201588 0.0201926 0.0202291 0.0202683 0.02031 0.0203541 0.0204002 0.0204479 0.0204969 0.0205468 0.020597 0.0206471 0.0206966 0.0207448 0.0207913 0.0208357 0.0208774 0.020916 0.020951 0.0209823 0.0210094 0.0210322 0.0210505 0.0210641 0.0210733 0.0210779 0.0210781 0.0210741 0.0210663 0.0210549 0.0210404 0.0210231 0.0210036 0.0209823 0.0209597 0.0209364 0.0209128 0.0208895 0.0208668 0.020845 0.0208245 0.0208054 0.0207875 0.0207706 0.0207535 0.0207334 0.0207052 0.0206639 0.0206083 0.0205412 0.0204599 0.0203605 0.0202391 0.0200921 0.019916 0.0197084 0.0194684 0.0191958 0.0188979 0.0185756 0.0182615 0.0179654 0.0176627 0.0175263 0.0173735 0.0169347 0.0161442 0.0153017 0.014407 0.0134953 0.0125062 0.0114281 0.0103298 0.00935972 0.00818525 0.0075342 0.00628281 0.00470626 0.00312219 0.00151096 0.000194543 -0.00153188 0 0 0 0 0 0 0 0 0 0 0 0 0 0 0 0 0 0 0 0 0 0 0 0 0 0 0 0 0 0 0 0 0 0 0 0 0 0 0 0 0 0 0 0 0 0 0 0 0 0 0 0 0 0 0 0 0 0 0 0 0 0 0 0 0 0 0 0 0 0 0 0 0 0 0 0 0 0 0 0 0 0 0 0 0 0 0 0 0 0 0 0 0 0 0 0 0 0 0 0 0 0 0 0 0 0 0 0 0 0 0 0 0 0 0 0 0 0 0 0 0 0 0 0 0 0 0 0 0 0 0 0 0 0 0 0 0 0 0 0 0 0 0 0 0 0 0 0 0 0 0 0 0 0 0 0 0 0 0 0 0 0 0 0 0 0 0 0 0 0 0 0 0 0 0 0 0 0 0 0 0 0 0 0 0 0 0 0 0 0 0 0 0 0 0 0 0 0 0 0 0 0 0 0 0 0 0 0 0 0 0 0 0 0 0 0 0 0 0 0 0 0 0 0 0 0 0 0 0 0 0 0 0 0 0 0 0 0 0 0 0 0 0 0 0 0 0 0 0 0 0 0 0 0 0 0 0 0 0 0 0 0 0 0 0 0 0 0 0 0 0 0 0 0 0 0 0 0 0 0 0 0 0 0 0 0 0 0 0 0 0 0 0 0 0 0 0 0 0 0 0 0 0 0 0 0 0 0 0 0 0 0 0 0 0 0 0 0 0 0 0 0 0 0 0 0 0 0 0 0 0 0 0 0 0 0 0 0 0 0 0 0 0 0 0 0 0 0 0 0 0 0 0 0 0 0 0 0 0 0 0 0 0 0 0 0 0 0 0 0 0 0 0 0 0 0 0 0 0 0 0 0 0 0 0 0 0 0 0 0 0 0 0 0 0 0 0 0 0 0 0 0 0 0 0 0 0 0 -5.42101e-20 
0.02 0.02 0.02 0.02 0.02 0.02 0.02 0.02 0.02 0.02 0.02 0.02 0.02 0.02 0.02 0.02 0.02 0.02 0.02 0.02 0.02 0.02 0.02 0.02 0.02 0.02 0.02 0.02 0.02 0.02 0.02 0.02 0.02 0.02 0.02 0.0199999 0.0199999 0.0199999 0.0199999 0.0199999 0.0199999 0.0199999 0.0199999 0.0199998 0.0199998 0.0199998 0.0199998 0.0199997 0.0199997 0.0199997 0.0199996 0.0199996 0.0199996 0.0199995 0.0199995 0.0199994 0.0199993 0.0199993 0.0199992 0.0199991 0.019999 0.0199989 0.0199988 0.0199987 0.0199986 0.0199985 0.0199984 0.0199982 0.0199981 0.0199979 0.0199977 0.0199975 0.0199973 0.0199971 0.0199969 0.0199966 0.0199963 0.019996 0.0199956 0.0199952 0.0199948 0.0199943 0.0199938 0.0199933 0.0199926 0.0199919 0.0199912 0.0199903 0.0199894 0.0199884 0.0199873 0.0199861 0.0199848 0.0199834 0.0199818 0.0199802 0.0199784 0.0199766 0.0199746 0.0199725 0.0199702 0.0199679 0.0199655 0.0199631 0.0199606 0.0199581 0.0199557 0.0199533 0.019951 0.0199489 0.0199471 0.0199456 0.0199446 0.019944 0.0199442 0.0199451 0.019947 0.01995 0.0199542 0.0199598 0.0199671 0.0199761 0.019987 0.02 0.0200152 0.0200327 0.0200527 0.0200752 0.0201003 0.0201281 0.0201586 0.0201918 0.0202278 0.0202663 0.0203074 0.0203507 0.020396 0.020443 0.0204912 0.0205403 0.0205898 0.0206391 0.0206878 0.0207353 0.0207812 0.020825 0.0208661 0.0209043 0.020939 0.02097 0.020997 0.0210198 0.0210383 0.0210523 0.021062 0.0210673 0.0210684 0.0210655 0.0210589 0.0210489 0.021036 0.0210204 0.0210027 0.0209833 0.0209628 0.0209416 0.0209202 0.0208991 0.0208786 0.0208591 0.0208408 0.0208239 0.0208081 0.0207929 0.0207766 0.0207561 0.0207274 0.0206867 0.0206329 0.020566 0.0204841 0.0203838 0.0202616 0.020114 0.019938 0.0197323 0.0194985 0.0192403 0.0189658 0.0186869 0.0184013 0.0181521 0.0178876 0.0175386 0.0172614 0.0167374 0.016028 0.0152275 0.0143532 0.0134329 0.0124551 0.0114227 0.0103882 0.00944219 0.00847713 0.00731659 0.00603005 0.0045973 0.00307934 0.00151253 -1.29067e-05 -0.00180663 -0.00375867 -0.00573892 -0.00808507 -0.0108801 0 0 0 0 0 0 0 0 0 0 0 0 0 0 0 0 0 0 0 0 0 0 0 0 0 0 0 0 0 0 0 0 0 0 0 0 0 0 0 0 0 0 0 0 0 0 0 0 0 0 0 0 0 0 0 0 0 0 0 0 0 0 0 0 0 0 0 0 0 0 0 0 0 0 0 0 0 0 0 0 0 0 0 0 0 0 0 0 0 0 0 0 0 0 0 0 0 0 0 0 0 0 0 0 0 0 0 0 0 0 0 0 0 0 0 0 0 0 0 0 0 0 0 0 0 0 0 0 0 0 0 0 0 0 0 0 0 0 0 0 0 0 0 0 0 0 0 0 0 0 0 0 0 0 0 0 0 0 0 0 0 0 0 0 0 0 0 0 0 0 0 0 0 0 0 0 0 0 0 0 0 0 0 0 0 0 0 0 0 0 0 0 0 0 0 0 0 0 0 0 0 0 0 0 0 0 0 0 0 0 0 0 0 0 0 0 0 0 0 0 0 0 0 0 0 0 0 0 0 0 0 0 0 0 0 0 0 0 0 0 0 0 0 0 0 0 0 0 0 0 0 0 0 0 0 0 0 0 0 0 0 0 0 0 0 0 0 0 0 0 0 0 0 0 0 0 0 0 0 0 0 0 0 0 0 0 0 0 0 0 0 0 0 0 0 0 0 0 0 0 0 0 0 0 0 0 0 0 0 0 0 0 0 0 0 0 0 0 0 0 0 0 0 0 0 0 0 0 0 0 0 0 0 0 0 0 0 0 0 0 0 0 0 0 0 0 0 0 0 0 0 0 0 0 0 0 0 0 0 0 0 0 0 0 0 0 0 0 0 0 0 0 0 0 0 0 0 0 0 0 0 0 0 0 0 0 0 0 0 0 0 0 0 0 0 0 0 0 0 0 0 0 0 -0.00407377 -2.1684e-19 
0.02 0.02 0.02 0.02 0.02 0.02 0.02 0.02 0.02 0.02 0.02 0.02 0.02 0.02 0.02 0.02 0.02 0.02 0.02 0.02 0.02 0.02 0.02 0.02 0.02 0.02 0.02 0.02 0.02 0.02 0.02 0.02 0.02 0.02 0.02 0.0199999 0.0199999 0.0199999 0.0199999 0.0199999 0.0199999 0.0199999 0.0199999 0.0199998 0.0199998 0.0199998 0.0199998 0.0199998 0.0199997 0.0199997 0.0199997 0.0199996 0.0199996 0.0199995 0.0199995 0.0199994 0.0199993 0.0199993 0.0199992 0.0199991 0.019999 0.019999 0.0199989 0.0199988 0.0199986 0.0199985 0.0199984 0.0199982 0.0199981 0.0199979 0.0199978 0.0199976 0.0199974 0.0199971 0.0199969 0.0199966 0.0199963 0.019996 0.0199957 0.0199953 0.0199949 0.0199944 0.0199939 0.0199933 0.0199927 0.019992 0.0199913 0.0199904 0.0199895 0.0199885 0.0199874 0.0199862 0.0199849 0.0199836 0.019982 0.0199804 0.0199787 0.0199768 0.0199749 0.0199728 0.0199706 0.0199683 0.019966 0.0199636 0.0199612 0.0199587 0.0199563 0.0199539 0.0199517 0.0199497 0.0199479 0.0199465 0.0199455 0.019945 0.0199452 0.0199461 0.019948 0.019951 0.0199552 0.0199608 0.019968 0.0199769 0.0199878 0.0200008 0.020016 0.0200335 0.0200535 0.0200759 0.0201009 0.0201284 0.0201586 0.0201913 0.0202267 0.0202646 0.0203048 0.0203473 0.0203918 0.0204379 0.0204852 0.0205334 0.020582 0.0206304 0.0206783 0.0207251 0.0207702 0.0208133 0.0208539 0.0208916 0.020926 0.0209568 0.0209838 0.0210068 0.0210255 0.0210401 0.0210505 0.0210567 0.021059 0.0210575 0.0210525 0.0210443 0.0210333 0.0210198 0.0210044 0.0209874 0.0209694 0.0209508 0.020932 0.0209134 0.0208956 0.0208787 0.0208629 0.0208484 0.0208347 0.020821 0.0208054 0.0207849 0.0207559 0.0207156 0.0206626 0.0205959 0.0205134 0.0204122 0.0202894 0.0201419 0.0199677 0.019767 0.0195438 0.0193055 0.0190586 0.0188145 0.0185702 0.0183148 0.018059 0.0177104 0.0172404 0.0166481 0.0159485 0.0151692 0.0143116 0.0133982 0.0124432 0.0114615 0.0104573 0.00947022 0.00841137 0.00723115 0.00592416 0.00450641 0.00302881 0.00145869 -0.000134997 -0.00191145 -0.00378724 -0.00557744 -0.00777916 -0.0102213 -0.0125731 -0.0148654 -0.0176245 -0.0217498 0 0 0 0 0 0 0 0 0 0 0 0 0 0 0 0 0 0 0 0 0 0 0 0 0 0 0 0 0 0 0 0 0 0 0 0 0 0 0 0 0 0 0 0 0 0 0 0 0 0 0 0 0 0 0 0 0 0 0 0 0 0 0 0 0 0 0 0 0 0 0 0 0 0 0 0 0 0 0 0 0 0 0 0 0 0 0 0 0 0 0 0 0 0 0 0 0 0 0 0 0 0 0 0 0 0 0 0 0 0 0 0 0 0 0 0 0 0 0 0 0 0 0 0 0 0 0 0 0 0 0 0 0 0 0 0 0 0 0 0 0 0 0 0 0 0 0 0 0 0 0 0 0 0 0 0 0 0 0 0 0 0 0 0 0 0 0 0 0 0 0 0 0 0 0 0 0 0 0 0 0 0 0 0 0 0 0 0 0 0 0 0 0 0 0 0 0 0 0 0 0 0 0 0 0 0 0 0 0 0 0 0 0 0 0 0 0 0 0 0 0 0 0 0 0 0 0 0 0 0 0 0 0 0 0 0 0 0 0 0 0 0 0 0 0 0 0 0 0 0 0 0 0 0 0 0 0 0 0 0 0 0 0 0 0 0 0 0 0 0 0 0 0 0 0 0 0 0 0 0 0 0 0 0 0 0 0 0 0 0 0 0 0 0 0 0 0 0 0 0 0 0 0 0 0 0 0 0 0 0 0 0 0 0 0 0 0 0 0 0 0 0 0 0 0 0 0 0 0 0 0 0 0 0 0 0 0 0 0 0 0 0 0 0 0 0 0 0 0 0 0 0 0 0 0 0 0 0 0 0 0 0 0 0 0 0 0 0 0 0 0 0 0 0 0 0 0 0 0 0 0 0 0 0 0 0 0 0 0 0 0 0 0 0 0 0 0 0 -0.0128667 -0.00670253 8.67362e-19 
0.02 0.02 0.02 0.02 0.02 0.02 0.02 0.02 0.02 0.02 0.02 0.02 0.02 0.02 0.02 0.02 0.02 0.02 0.02 0.02 0.02 0.02 0.02 0.02 0.02 0.02 0.02 0.02 0.02 0.02 0.02 0.02 0.02 0.02 0.02 0.02 0.0199999 0.0199999 0.0199999 0.0199999 0.0199999 0.0199999 0.0199999 0.0199999 0.0199998 0.0199998 0.0199998 0.0199998 0.0199997 0.0199997 0.0199997 0.0199996 0.0199996 0.0199995 0.0199995 0.0199994 0.0199994 0.0199993 0.0199992 0.0199991 0.0199991 0.019999 0.0199989 0.0199988 0.0199987 0.0199985 0.0199984 0.0199983 0.0199981 0.019998 0.0199978 0.0199976 0.0199974 0.0199972 0.0199969 0.0199967 0.0199964 0.019996 0.0199957 0.0199953 0.0199949 0.0199944 0.0199939 0.0199934 0.0199927 0.0199921 0.0199913 0.0199905 0.0199896 0.0199886 0.0199875 0.0199864 0.0199851 0.0199837 0.0199822 0.0199806 0.0199789 0.0199771 0.0199752 0.0199731 0.019971 0.0199688 0.0199665 0.0199641 0.0199618 0.0199594 0.019957 0.0199547 0.0199526 0.0199506 0.0199489 0.0199475 0.0199466 0.0199462 0.0199464 0.0199474 0.0199493 0.0199523 0.0199565 0.019962 0.0199692 0.0199781 0.0199888 0.0200017 0.0200168 0.0200342 0.0200541 0.0200765 0.0201013 0.0201287 0.0201586 0.0201909 0.0202258 0.020263 0.0203025 0.0203441 0.0203877 0.0204328 0.0204791 0.0205263 0.0205739 0.0206214 0.0206683 0.0207143 0.0207586 0.0208011 0.0208411 0.0208783 0.0209125 0.0209432 0.0209702 0.0209934 0.0210127 0.021028 0.0210393 0.0210467 0.0210504 0.0210505 0.0210474 0.0210413 0.0210326 0.0210216 0.0210088 0.0209946 0.0209794 0.0209636 0.0209477 0.0209321 0.0209171 0.0209029 0.0208898 0.0208777 0.020866 0.0208537 0.0208385 0.0208179 0.0207887 0.0207486 0.0206958 0.020629 0.0205459 0.0204442 0.0203212 0.0201751 0.0200053 0.0198131 0.0196041 0.0193865 0.0191667 0.0189439 0.0187136 0.0184413 0.0181121 0.0177186 0.0172179 0.0166118 0.0159105 0.015132 0.0142877 0.0133904 0.0124591 0.0115048 0.0105179 0.0094695 0.00837188 0.00715747 0.00583695 0.00442713 0.00294999 0.00138201 -0.000273106 -0.00203678 -0.0039205 -0.00582933 -0.00780227 -0.0101988 -0.0124246 -0.0144384 -0.0170605 -0.0202269 -0.0227904 -0.0253822 -0.027938 -0.033776 -0.0339607 0 0 0 0 0 0 0 0 0 0 0 0 0 0 0 0 0 0 0 0 0 0 0 0 0 0 0 0 0 0 0 0 0 0 0 0 0 0 0 0 0 0 0 0 0 0 0 0 0 0 0 0 0 0 0 0 0 0 0 0 0 0 0 0 0 0 0 0 0 0 0 0 0 0 0 0 0 0 0 0 0 0 0 0 0 0 0 0 0 0 0 0 0 0 0 0 0 0 0 0 0 0 0 0 0 0 0 0 0 0 0 0 0 0 0 0 0 0 0 0 0 0 0 0 0 0 0 0 0 0 0 0 0 0 0 0 0 0 0 0 0 0 0 0 0 0 0 0 0 0 0 0 0 0 0 0 0 0 0 0 0 0 0 0 0 0 0 0 0 0 0 0 0 0 0 0 0 0 0 0 0 0 0 0 0 0 0 0 0 0 0 0 0 0 0 0 0 0 0 0 0 0 0 0 0 0 0 0 0 0 0 0 0 0 0 0 0 0 0 0 0 0 0 0 0 0 0 0 0 0 0 0 0 0 0 0 0 0 0 0 0 0 0 0 0 0 0 0 0 0 0 0 0 0 0 0 0 0 0 0 0 0 0 0 0 0 0 0 0 0 0 0 0 0 0 0 0 0 0 0 0 0 0 0 0 0 0 0 0 0 0 0 0 0 0 0 0 0 0 0 0 0 0 0 0 0 0 0 0 0 0 0 0 0 0 0 0 0 0 0 0 0 0 0 0 0 0 0 0 0 0 0 0 0 0 0 0 0 0 0 0 0 0 0 0 0 0 0 0 0 0 0 0 0 0 0 0 0 0 0 0 0 0 0 0 0 0 0 0 0 0 0 0 0 0 0 0 0 0 0 0 0 0 0 0 0 0 0 0 0 0 -0.0277693 -0.0241534 -0.0171572 -0.009344 -1.30104e-18 
0.02 0.02 0.02 0.02 0.02 0.02 0.02 0.02 0.02 0.02 0.02 0.02 0.02 0.02 0.02 0.02 0.02 0.02 0.02 0.02 0.02 0.02 0.02 0.02 0.02 0.02 0.02 0.02 0.02 0.02 0.02 0.02 0.02 0.02 0.02 0.02 0.0199999 0.0199999 0.0199999 0.0199999 0.0199999 0.0199999 0.0199999 0.0199999 0.0199998 0.0199998 0.0199998 0.0199998 0.0199997 0.0199997 0.0199997 0.0199996 0.0199996 0.0199995 0.0199995 0.0199994 0.0199994 0.0199993 0.0199992 0.0199992 0.0199991 0.019999 0.0199989 0.0199988 0.0199987 0.0199986 0.0199984 0.0199983 0.0199981 0.019998 0.0199978 0.0199976 0.0199974 0.0199972 0.0199969 0.0199967 0.0199964 0.0199961 0.0199957 0.0199953 0.0199949 0.0199945 0.0199939 0.0199934 0.0199928 0.0199921 0.0199914 0.0199905 0.0199896 0.0199887 0.0199876 0.0199865 0.0199852 0.0199839 0.0199824 0.0199808 0.0199792 0.0199774 0.0199755 0.0199735 0.0199714 0.0199692 0.019967 0.0199647 0.0199624 0.0199601 0.0199578 0.0199556 0.0199536 0.0199517 0.01995 0.0199488 0.0199479 0.0199475 0.0199478 0.0199489 0.0199508 0.0199539 0.0199581 0.0199636 0.0199707 0.0199796 0.0199902 0.020003 0.0200179 0.0200352 0.0200548 0.020077 0.0201017 0.0201289 0.0201585 0.0201905 0.0202249 0.0202615 0.0203003 0.0203411 0.0203837 0.0204278 0.0204731 0.0205192 0.0205658 0.0206122 0.0206582 0.0207032 0.0207468 0.0207885 0.020828 0.0208648 0.0208987 0.0209293 0.0209565 0.0209801 0.021 0.0210161 0.0210286 0.0210374 0.0210427 0.0210448 0.0210438 0.0210401 0.0210339 0.0210257 0.0210157 0.0210045 0.0209924 0.0209797 0.0209669 0.0209543 0.0209423 0.020931 0.0209206 0.0209107 0.0209008 0.0208895 0.0208746 0.0208538 0.0208243 0.020784 0.0207311 0.0206639 0.0205804 0.0204786 0.0203566 0.0202136 0.0200506 0.01987 0.0196766 0.0194768 0.0192732 0.0190591 0.0188199 0.0185418 0.0181871 0.0177441 0.017209 0.0165873 0.0158856 0.0151126 0.0142816 0.0134026 0.0124874 0.011541 0.0105486 0.0094912 0.00834049 0.00709673 0.00576751 0.00435413 0.0028621 0.00127445 -0.00040473 -0.0021772 -0.0040635 -0.00604068 -0.00813589 -0.010297 -0.0125684 -0.0147993 -0.0170277 -0.0199671 -0.0224089 -0.0248839 -0.0274133 -0.030832 -0.0340176 -0.0362041 -0.038134 -0.0414585 -0.0494555 0 0 0 0 0 0 0 0 0 0 0 0 0 0 0 0 0 0 0 0 0 0 0 0 0 0 0 0 0 0 0 0 0 0 0 0 0 0 0 0 0 0 0 0 0 0 0 0 0 0 0 0 0 0 0 0 0 0 0 0 0 0 0 0 0 0 0 0 0 0 0 0 0 0 0 0 0 0 0 0 0 0 0 0 0 0 0 0 0 0 0 0 0 0 0 0 0 0 0 0 0 0 0 0 0 0 0 0 0 0 0 0 0 0 0 0 0 0 0 0 0 0 0 0 0 0 0 0 0 0 0 0 0 0 0 0 0 0 0 0 0 0 0 0 0 0 0 0 0 0 0 0 0 0 0 0 0 0 0 0 0 0 0 0 0 0 0 0 0 0 0 0 0 0 0 0 0 0 0 0 0 0 0 0 0 0 0 0 0 0 0 0 0 0 0 0 0 0 0 0 0 0 0 0 0 0 0 0 0 0 0 0 0 0 0 0 0 0 0 0 0 0 0 0 0 0 0 0 0 0 0 0 0 0 0 0 0 0 0 0 0 0 0 0 0 0 0 0 0 0 0 0 0 0 0 0 0 0 0 0 0 0 0 0 0 0 0 0 0 0 0 0 0 0 0 0 0 0 0 0 0 0 0 0 0 0 0 0 0 0 0 0 0 0 0 0 0 0 0 0 0 0 0 0 0 0 0 0 0 0 0 0 0 0 0 0 0 0 0 0 0 0 0 0 0 0 0 0 0 0 0 0 0 0 0 0 0 0 0 0 0 0 0 0 0 0 0 0 0 0 0 0 0 0 0 0 0 0 0 0 0 0 0 0 0 0 0 0 0 0 0 0 0 0 -0.0400808 -0.0429871 -0.0437864 -0.0439716 -0.0439379 -0.0438006 -0.0435871 -0.043283 -0.042871 -0.0422663 -0.0411244 -0.0387902 -0.0359028 -0.0315559 -0.0259681 -0.0190703 -0.0107959 -1.95156e-18 
0.02 0.02 0.02 0.02 0.02 0.02 0.02 0.02 0.02 0.02 0.02 0.02 0.02 0.02 0.02 0.02 0.02 0.02 0.02 0.02 0.02 0.02 0.02 0.02 0.02 0.02 0.02 0.02 0.02 0.02 0.02 0.02 0.02 0.02 0.02 0.02 0.0199999 0.0199999 0.0199999 0.0199999 0.0199999 0.0199999 0.0199999 0.0199999 0.0199998 0.0199998 0.0199998 0.0199998 0.0199997 0.0199997 0.0199997 0.0199996 0.0199996 0.0199995 0.0199995 0.0199994 0.0199994 0.0199993 0.0199992 0.0199992 0.0199991 0.019999 0.0199989 0.0199988 0.0199987 0.0199986 0.0199984 0.0199983 0.0199981 0.019998 0.0199978 0.0199976 0.0199974 0.0199972 0.0199969 0.0199967 0.0199964 0.0199961 0.0199957 0.0199953 0.0199949 0.0199945 0.0199939 0.0199934 0.0199928 0.0199921 0.0199914 0.0199906 0.0199897 0.0199887 0.0199877 0.0199865 0.0199853 0.019984 0.0199826 0.019981 0.0199794 0.0199777 0.0199758 0.0199739 0.0199719 0.0199698 0.0199676 0.0199654 0.0199631 0.0199609 0.0199587 0.0199566 0.0199547 0.0199529 0.0199514 0.0199502 0.0199494 0.0199491 0.0199495 0.0199507 0.0199527 0.0199557 0.01996 0.0199656 0.0199726 0.0199814 0.019992 0.0200046 0.0200194 0.0200364 0.0200558 0.0200778 0.0201022 0.0201291 0.0201584 0.0201901 0.020224 0.0202601 0.0202982 0.0203382 0.0203799 0.020423 0.0204672 0.0205123 0.0205577 0.0206031 0.0206481 0.0206922 0.0207349 0.0207759 0.0208148 0.0208513 0.020885 0.0209156 0.020943 0.0209671 0.0209877 0.0210049 0.0210186 0.0210289 0.0210361 0.0210402 0.0210415 0.0210404 0.021037 0.0210317 0.0210248 0.0210168 0.0210078 0.0209984 0.0209889 0.0209795 0.0209704 0.020962 0.020954 0.0209462 0.0209377 0.020927 0.0209123 0.020891 0.020861 0.0208202 0.0207668 0.0206992 0.0206156 0.0205144 0.0203947 0.0202567 0.0201022 0.019934 0.0197551 0.0195674 0.0193699 0.0191538 0.0189008 0.0185897 0.0182096 0.0177483 0.0172026 0.0165758 0.0158754 0.0151099 0.014291 0.0134266 0.0125205 0.0115666 0.0105583 0.00947338 0.00830428 0.00704842 0.00570831 0.00428281 0.00277115 0.00116809 -0.000531087 -0.00232146 -0.00420868 -0.00621642 -0.00829221 -0.0104505 -0.0127222 -0.0150695 -0.017543 -0.0200332 -0.0224576 -0.0249509 -0.0276733 -0.0304871 -0.0333021 -0.0355776 -0.0371491 -0.0402364 -0.0444738 -0.0467704 -0.0480797 -0.0490406 -0.0501762 -0.0519357 -0.061981 0 0 0 0 0 0 0 0 0 0 0 0 0 0 0 0 0 0 0 0 0 0 0 0 0 0 0 0 0 0 0 0 0 0 0 0 0 0 0 0 0 0 0 0 0 0 0 0 0 0 0 0 0 0 0 0 0 0 0 0 0 0 0 0 0 0 0 0 0 0 0 0 0 0 0 0 0 0 0 0 0 0 0 0 0 0 0 0 0 0 0 0 0 0 0 0 0 0 0 0 0 0 0 0 0 0 0 0 0 0 0 0 0 0 0 0 0 0 0 0 0 0 0 0 0 0 0 0 0 0 0 0 0 0 0 0 0 0 0 0 0 0 0 0 0 0 0 0 0 0 0 0 0 0 0 0 0 0 0 0 0 0 0 0 0 0 0 0 0 0 0 0 0 0 0 0 0 0 0 0 0 0 0 0 0 0 0 0 0 0 0 0 0 0 0 -0.0485417 -0.0507431 -0.0513617 -0.0515376 -0.0515653 -0.0515469 -0.0515251 -0.0514935 -0.0514496 -0.0513964 -0.0513378 -0.0512776 -0.0512199 -0.0511686 -0.0511269 -0.0510968 -0.0510794 -0.0510748 -0.051082 -0.0510997 -0.0511259 -0.0511589 -0.0511969 -0.0512385 -0.0512826 -0.0513286 -0.0513767 -0.0514273 -0.0514815 -0.0515408 -0.0516067 -0.0516812 -0.0517659 -0.0518626 -0.0519724 -0.0520962 -0.0522342 -0.052386 -0.0525504 -0.0527259 -0.0529101 -0.0531002 -0.0532932 -0.053486 -0.0536754 -0.0538587 -0.0540333 -0.0541973 -0.0543493 -0.0544881 -0.0546133 -0.0547247 -0.0548224 -0.0549068 -0.0549784 -0.0550376 -0.055085 -0.0551205 -0.0551428 -0.0551485 -0.0551323 -0.0550867 -0.0550031 -0.0548793 -0.0547252 -0.0545313 -0.054331 -0.0543547 -0.0555537 -0.0613917 -0.0581543 0 0 0 0 0 0 0 0 0 0 0 0 0 0 0 0 0 0 0 0 0 0 0 0 0 0 0 0 0 0 0 0 0 0 0 0 0 0 0 0 0 0 0 0 0 0 0 0 0 0 0 0 0 0 0 0 0 0 0 0 0 -0.0486765 -0.0520038 -0.0528693 -0.0530421 -0.0529978 -0.0528778 -0.0527271 -0.0525601 -0.0523825 -0.0521947 -0.0519952 -0.0517826 -0.0515568 -0.0513189 -0.0510707 -0.0508142 -0.0505487 -0.0502685 -0.0499589 -0.0495629 -0.049036 -0.0485863 -0.0482375 -0.0479359 -0.0476656 -0.0474168 -0.0471836 -0.0469623 -0.0467509 -0.0465487 -0.0463563 -0.0461746 -0.046005 -0.0458486 -0.0457053 -0.0455733 -0.0454482 -0.0453261 -0.0452025 -0.0449577 -0.0443619 -0.043569 -0.04371 -0.0439335 -0.0439902 -0.043932 -0.0437907 -0.0435867 -0.0432995 -0.0428803 -0.0422185 -0.0410223 -0.0389749 -0.0360725 -0.0319747 -0.0266978 -0.020115 -0.0116649 1.30104e-18 