# vtk DataFile Version 2.0
iteration 1836
ASCII

DATASET STRUCTURED_POINTS
DIMENSIONS 621 64 1
ORIGIN 0 0 0
SPACING 0.00161031 0.00161031 0.00161031

POINT_DATA 39744
SCALARS P float 1
LOOKUP_TABLE default
0 0 0 0 0 0 0 0 0 0 0 0 0 0 0 0 0 0 0 0 0 0 0 0 0 0 0 0 0 0 0 0 0 0 0 0 0 0 0 0 0 0 0 0 0 0 0 0 0 0 0 0 0 0 0 0 0 0 0 0 0 0 0 0 0 0 0 0 0 0 0 0 0 0 0 0 0 0 0 0 0 0 0 0 0 0 0 0 0 0 0 0 0 0 0 0 0 0 0 0 0 0 0 0 0 0 0 0 0 0 0 0 0 0 0 0 0 0 0 0 0 0 0 0 0 0 0 0 0 0 0 0 0 0 0 0 0 0 0 0 0 0 0 0 0 0 0 0 0 0 0 0 0 0 0 0 0 0 0 0 0 0 0 0 0 0 0 0 0 0 0 0 0 0 0 0 0 0 0 0 0 0 0 0 0 0 0 0 0 0 0 0 0 0 0 0 0 0 0 0 0 0 0 0 0 0 0 0 0 0 0 0 0 0 0 0 0 0 0 0 0 0 0 0 0 0 0 0 0 0 0 0 0 0 0 0 0 0 0 0 0 0 0 0 0 0 0 0 0 0 0 0 0 0 0 0 0 0 0 0 0 0 0 0 0 0 0 0 0 0 0 0 0 0 0 0 0 0 0 0 0 0 0 0 0 0 0 0 0 0 0 0 0 0 0 0 0 0 0 0 0 0 0 0 0 0 0 0 0 0 0 0 0 0 0 0 0 0 0 0 0 0 0 0 0 0 0 0 0 0 0 0 0 0 0 0 0 0 0 0 0 0 0 0 0 0 0 0 0 0 0 0 0 0 0 0 0 0 0 0 0 0 0 0 0 0 0 0 0 0 0 0 0 0 0 0 0 0 0 0 0 0 0 0 0 0 0 0 0 0 0 0 0 0 0 0 0 0 0 0 0 0 0 0 0 0 0 0 0 0 0 0 0 0 0 0 0 0 0 0 0 0 0 0 0 0 0 0 0 0 0 0 0 0 0 0 0 0 0 0 0 0 0 0 0 0 0 0 0 0 0 0 0 0 0 0 0 0 0 0 0 0 0 0 0 0 0 0 0 0 0 0 0 0 0 0 0 0 0 0 0 0 0 0 0 0 0 0 0 0 0 0 0 0 0 0 0 0 0 0 0 0 0 0 0 0 0 0 0 0 0 0 0 0 0 0 0 0 0 0 0 0 0 0 0 0 0 0 0 0 0 0 0 0 0 0 0 0 0 0 0 0 0 0 0 0 0 0 0 0 0 0 0 0 0 0 0 0 0 0 0 0 0 0 0 0 0 0 0 0 0 0 0 0 0 0 0 0 0 0 0 0 0 0 0 0 0 0 0 0 0 0 0 0 0 0 0 0 0 0 0 0 0 0 0 0 0 0 0 0 0 0 0 0 0 0 0 0 0 0 0 
0.02 0.02 0.02 0.02 0.02 0.02 0.02 0.02 0.02 0.02 0.02 0.02 0.02 0.02 0.02 0.02 0.02 0.02 0.02 0.02 0.02 0.02 0.02 0.02 0.02 0.02 0.02 0.02 0.02 0.02 0.02 0.02 0.02 0.02 0.02 0.02 0.02 0.02 0.02 0.02 0.02 0.02 0.02 0.02 0.02 0.02 0.02 0.02 0.02 0.02 0.02 0.02 0.02 0.02 0.02 0.02 0.02 0.02 0.02 0.02 0.02 0.02 0.02 0.02 0.02 0.02 0.02 0.02 0.02 0.02 0.02 0.02 0.02 0.02 0.02 0.02 0.02 0.02 0.02 0.02 0.02 0.02 0.02 0.02 0.02 0.02 0.02 0.02 0.02 0.02 0.02 0.02 0.02 0.02 0.02 0.02 0.02 0.02 0.02 0.02 0.02 0.02 0.02 0.02 0.02 0.02 0.02 0.02 0.02 0.02 0.02 0.02 0.02 0.02 0.02 0.02 0.02 0.02 0.02 0.02 0.02 0.02 0.02 0.02 0.02 0.02 0.02 0.02 0.02 0.02 0.02 0.02 0.02 0.02 0.02 0.02 0.02 0.02 0.02 0.02 0.02 0.02 0.02 0.0200001 0.0200001 0.0200001 0.0200001 0.0200001 0.0200001 0.0200001 0.0200001 0.0200001 0.0200001 0.0200001 0.0200001 0.0200002 0.0200002 0.0200002 0.0200002 0.0200002 0.0200003 0.0200003 0.0200003 0.0200003 0.0200004 0.0200004 0.0200004 0.0200005 0.0200005 0.0200006 0.0200006 0.0200007 0.0200008 0.0200008 0.0200009 0.020001 0.0200011 0.0200012 0.0200013 0.0200014 0.0200015 0.0200017 0.0200018 0.020002 0.0200022 0.0200024 0.0200026 0.0200028 0.0200031 0.0200034 0.0200037 0.020004 0.0200044 0.0200047 0.0200052 0.0200056 0.0200061 0.0200066 0.0200071 0.0200077 0.0200084 0.0200091 0.0200098 0.0200106 0.0200114 0.0200123 0.0200132 0.0200142 0.0200153 0.0200165 0.0200177 0.0200189 0.0200203 0.0200217 0.0200232 0.0200248 0.0200265 0.0200282 0.02003 0.020032 0.020034 0.0200361 0.0200382 0.0200405 0.0200429 0.0200453 0.0200479 0.0200505 0.0200532 0.020056 0.0200589 0.0200619 0.020065 0.0200681 0.0200713 0.0200746 0.020078 0.0200814 0.0200849 0.0200885 0.0200921 0.0200958 0.0200996 0.0201034 0.0201072 0.0201111 0.020115 0.0201189 0.0201228 0.0201268 0.0201308 0.0201347 0.0201387 0.0201426 0.0201465 0.0201504 0.0201543 0.0201581 0.0201619 0.0201656 0.0201693 0.0201729 0.0201765 0.02018 0.0201834 0.0201867 0.0201899 0.020193 0.0201961 0.020199 0.0202018 0.0202045 0.0202071 0.0202096 0.0202119 0.0202141 0.0202162 0.0202181 0.0202199 0.0202216 0.0202232 0.0202246 0.0202258 0.0202269 0.0202279 0.0202287 0.0202294 0.02023 0.0202305 0.0202308 0.020231 0.020231 0.020231 0.0202308 0.0202306 0.0202303 0.0202298 0.0202293 0.0202288 0.0202281 0.0202275 0.0202268 0.020226 0.0202253 0.0202245 0.0202238 0.0202231 0.0202224 0.0202217 0.0202211 0.0202206 0.0202201 0.0202197 0.0202195 0.0202193 0.0202193 0.0202194 0.0202196 0.0202199 0.0202205 0.0202211 0.0202219 0.0202229 0.0202241 0.0202254 0.0202269 0.0202285 0.0202303 0.0202322 0.0202343 0.0202366 0.020239 0.0202415 0.0202441 0.0202469 0.0202497 0.0202527 0.0202557 0.0202588 0.020262 0.0202652 0.0202684 0.0202717 0.020275 0.0202783 0.0202815 0.0202848 0.0202881 0.0202913 0.0202945 0.0202976 0.0203007 0.0203037 0.0203067 0.0203096 0.0203125 0.0203153 0.0203181 0.0203207 0.0203234 0.0203259 0.0203285 0.0203309 0.0203333 0.0203357 0.020338 0.0203402 0.0203424 0.0203445 0.0203466 0.0203486 0.0203505 0.0203523 0.020354 0.0203556 0.020357 0.0203583 0.0203594 0.0203603 0.0203609 0.0203613 0.0203614 0.0203611 0.0203605 0.0203594 0.0203578 0.0203556 0.0203528 0.0203494 0.0203452 0.02034 0.0203339 0.0203266 0.0203179 0.0203079 0.020297 0.0202864 0.0202757 0.0202644 0.0202524 0.0202399 0.020227 0.0202139 0.0202008 0.0201878 0.0201753 0.0201633 0.0201522 0.0201421 0.0201332 0.0201257 0.0201198 0.0201156 0.0201107 0.0201031 0.0200954 0.0200881 0.0200825 0.0200785 0.0200758 0.0200732 0.0200699 0.0200652 0.0200582 0.0200481 0.0200343 0.0200161 0.0199928 0.0199638 0.0199286 0.0198865 0.0198367 0.0197784 0.0197105 0.019632 0.0195418 0.019439 0.0193276 0.0192489 0.0194789 0.0219338 0 0 0 0 0 0 0 0 0 0 0 0 0 0 0 0 0 0 0 0 0 0 0 0 0 0 0 0 0 0 0 0 0 0 0 0 0 0 0 0 0 0 0 0 0 0 0 0 0 0 0 0 0 0 0 0 0 0 0 0 0 0 0 0 0 0 0 0 0 0 0 0 0 0 0 0 0 0 0 0 0 0 0 0 0 0 0 0 0 0 0 0 0 0 0 0 0 0 0 0 0 0 0 0 0 0 0 0 0 0 0 0 0 0 0 0 0 0 0 0 0 0 0 0 0 0 0 0 0 0 0 0 0 0 0 0 0 0 0 0 0 0 0 0 0 0 0 0 0 0 0 0 0 0 0 0 0 0 0 0 0 0 0 0 0 0 0 0 0 0 0 0 0 0 0 0 0 0 0 0 
0.02 0.02 0.02 0.02 0.02 0.02 0.02 0.02 0.02 0.02 0.02 0.02 0.02 0.02 0.02 0.02 0.02 0.02 0.02 0.02 0.02 0.02 0.02 0.02 0.02 0.02 0.02 0.02 0.02 0.02 0.02 0.02 0.02 0.02 0.02 0.02 0.02 0.02 0.02 0.02 0.02 0.02 0.02 0.02 0.02 0.02 0.02 0.02 0.02 0.02 0.02 0.02 0.02 0.02 0.02 0.02 0.02 0.02 0.02 0.02 0.02 0.02 0.02 0.02 0.02 0.02 0.02 0.02 0.02 0.02 0.02 0.02 0.02 0.02 0.02 0.02 0.02 0.02 0.02 0.02 0.02 0.02 0.02 0.02 0.02 0.02 0.02 0.02 0.02 0.02 0.02 0.02 0.02 0.02 0.02 0.02 0.02 0.02 0.02 0.02 0.02 0.02 0.02 0.02 0.02 0.02 0.02 0.02 0.02 0.02 0.02 0.02 0.02 0.02 0.02 0.02 0.02 0.02 0.02 0.02 0.02 0.02 0.02 0.02 0.02 0.02 0.02 0.02 0.02 0.02 0.02 0.02 0.02 0.02 0.02 0.02 0.02 0.02 0.02 0.02 0.02 0.02 0.02 0.0200001 0.0200001 0.0200001 0.0200001 0.0200001 0.0200001 0.0200001 0.0200001 0.0200001 0.0200001 0.0200001 0.0200001 0.0200002 0.0200002 0.0200002 0.0200002 0.0200002 0.0200003 0.0200003 0.0200003 0.0200003 0.0200004 0.0200004 0.0200004 0.0200005 0.0200005 0.0200006 0.0200006 0.0200007 0.0200007 0.0200008 0.0200009 0.020001 0.0200011 0.0200012 0.0200013 0.0200014 0.0200015 0.0200017 0.0200018 0.020002 0.0200022 0.0200024 0.0200026 0.0200028 0.0200031 0.0200033 0.0200036 0.020004 0.0200043 0.0200047 0.0200051 0.0200055 0.020006 0.0200065 0.0200071 0.0200077 0.0200083 0.020009 0.0200097 0.0200105 0.0200113 0.0200122 0.0200131 0.0200141 0.0200152 0.0200163 0.0200175 0.0200188 0.0200201 0.0200215 0.020023 0.0200246 0.0200263 0.020028 0.0200298 0.0200317 0.0200337 0.0200358 0.020038 0.0200403 0.0200426 0.0200451 0.0200476 0.0200502 0.0200529 0.0200557 0.0200586 0.0200616 0.0200646 0.0200678 0.020071 0.0200743 0.0200777 0.0200811 0.0200846 0.0200882 0.0200918 0.0200955 0.0200992 0.020103 0.0201068 0.0201107 0.0201146 0.0201185 0.0201225 0.0201264 0.0201304 0.0201344 0.0201383 0.0201422 0.0201462 0.0201501 0.0201539 0.0201578 0.0201615 0.0201653 0.020169 0.0201726 0.0201761 0.0201796 0.020183 0.0201863 0.0201896 0.0201927 0.0201957 0.0201987 0.0202015 0.0202042 0.0202068 0.0202093 0.0202116 0.0202138 0.0202159 0.0202179 0.0202197 0.0202213 0.0202229 0.0202243 0.0202255 0.0202266 0.0202276 0.0202285 0.0202292 0.0202297 0.0202302 0.0202305 0.0202306 0.0202307 0.0202307 0.0202305 0.0202302 0.0202299 0.0202294 0.0202289 0.0202283 0.0202277 0.020227 0.0202263 0.0202255 0.0202247 0.020224 0.0202232 0.0202224 0.0202217 0.020221 0.0202204 0.0202198 0.0202193 0.0202189 0.0202186 0.0202184 0.0202183 0.0202183 0.0202185 0.0202188 0.0202193 0.0202199 0.0202206 0.0202216 0.0202227 0.0202239 0.0202253 0.0202269 0.0202287 0.0202305 0.0202326 0.0202348 0.0202371 0.0202396 0.0202421 0.0202448 0.0202476 0.0202505 0.0202535 0.0202566 0.0202597 0.0202628 0.020266 0.0202693 0.0202725 0.0202758 0.020279 0.0202823 0.0202855 0.0202887 0.0202919 0.020295 0.0202981 0.0203011 0.0203041 0.020307 0.0203099 0.0203127 0.0203155 0.0203182 0.0203208 0.0203234 0.020326 0.0203285 0.0203309 0.0203333 0.0203356 0.0203379 0.0203401 0.0203423 0.0203444 0.0203464 0.0203484 0.0203502 0.020352 0.0203536 0.0203551 0.0203564 0.0203576 0.0203585 0.0203592 0.0203596 0.0203597 0.0203595 0.0203589 0.0203578 0.0203562 0.020354 0.0203512 0.0203477 0.0203433 0.0203381 0.0203318 0.0203243 0.020316 0.0203065 0.0202965 0.0202865 0.0202758 0.0202643 0.0202522 0.0202396 0.0202265 0.0202132 0.0201998 0.0201865 0.0201735 0.0201611 0.0201494 0.0201386 0.020129 0.0201208 0.020114 0.0201087 0.0201044 0.020099 0.0200916 0.0200843 0.0200779 0.0200726 0.0200682 0.0200641 0.0200591 0.0200528 0.0200442 0.0200326 0.0200172 0.0199974 0.0199725 0.019942 0.0199052 0.0198615 0.0198101 0.0197501 0.0196806 0.0196005 0.0195092 0.0194069 0.0193033 0.0192545 0.0193924 0.0197955 0.0194467 0.0189191 0.0186469 0.0183642 0.0180126 0.0174295 0.0165839 0.0160457 0.0181225 0 0 0 0 0 0 0 0 0 0 0 0 0 0 0 0 0 0 0 0 0 0 0 0 0 0 0 0 0 0 0 0 0 0 0 0 0 0 0 0 0 0 0 0 0 0 0 0 0 0 0 0 0 0 0 0 0 0 0 0 0 0 0 0 0 0 0 0 0 0 0 0 0 0 0 0 0 0 0 0 0 0 0 0 0 0 0 0 0 0 0 0 0 0 0 0 0 0 0 0 0 0 0 0 0 0 0 0 0 0 0 0 0 0 0 0 0 0 0 0 0 0 0 0 0 0 0 0 0 0 0 0 0 0 0 0 0 0 0 0 0 0 0 0 0 0 0 0 0 0 0 0 0 0 0 0 0 0 0 0 0 0 0 0 0 0 0 0 0 0 0 
0.02 0.02 0.02 0.02 0.02 0.02 0.02 0.02 0.02 0.02 0.02 0.02 0.02 0.02 0.02 0.02 0.02 0.02 0.02 0.02 0.02 0.02 0.02 0.02 0.02 0.02 0.02 0.02 0.02 0.02 0.02 0.02 0.02 0.02 0.02 0.02 0.02 0.02 0.02 0.02 0.02 0.02 0.02 0.02 0.02 0.02 0.02 0.02 0.02 0.02 0.02 0.02 0.02 0.02 0.02 0.02 0.02 0.02 0.02 0.02 0.02 0.02 0.02 0.02 0.02 0.02 0.02 0.02 0.02 0.02 0.02 0.02 0.02 0.02 0.02 0.02 0.02 0.02 0.02 0.02 0.02 0.02 0.02 0.02 0.02 0.02 0.02 0.02 0.02 0.02 0.02 0.02 0.02 0.02 0.02 0.02 0.02 0.02 0.02 0.02 0.02 0.02 0.02 0.02 0.02 0.02 0.02 0.02 0.02 0.02 0.02 0.02 0.02 0.02 0.02 0.02 0.02 0.02 0.02 0.02 0.02 0.02 0.02 0.02 0.02 0.02 0.02 0.02 0.02 0.02 0.02 0.02 0.02 0.02 0.02 0.02 0.02 0.02 0.02 0.02 0.02 0.02 0.02 0.0200001 0.0200001 0.0200001 0.0200001 0.0200001 0.0200001 0.0200001 0.0200001 0.0200001 0.0200001 0.0200001 0.0200001 0.0200002 0.0200002 0.0200002 0.0200002 0.0200002 0.0200002 0.0200003 0.0200003 0.0200003 0.0200003 0.0200004 0.0200004 0.0200005 0.0200005 0.0200006 0.0200006 0.0200007 0.0200007 0.0200008 0.0200009 0.0200009 0.020001 0.0200011 0.0200012 0.0200014 0.0200015 0.0200016 0.0200018 0.0200019 0.0200021 0.0200023 0.0200025 0.0200028 0.020003 0.0200033 0.0200036 0.0200039 0.0200042 0.0200046 0.020005 0.0200054 0.0200059 0.0200064 0.020007 0.0200075 0.0200082 0.0200088 0.0200096 0.0200103 0.0200112 0.020012 0.020013 0.020014 0.020015 0.0200161 0.0200173 0.0200186 0.0200199 0.0200213 0.0200228 0.0200244 0.020026 0.0200278 0.0200296 0.0200315 0.0200335 0.0200355 0.0200377 0.0200399 0.0200423 0.0200447 0.0200472 0.0200499 0.0200526 0.0200554 0.0200582 0.0200612 0.0200642 0.0200674 0.0200706 0.0200739 0.0200772 0.0200806 0.0200841 0.0200877 0.0200913 0.020095 0.0200987 0.0201025 0.0201063 0.0201102 0.0201141 0.020118 0.0201219 0.0201259 0.0201298 0.0201338 0.0201377 0.0201417 0.0201456 0.0201495 0.0201533 0.0201572 0.020161 0.0201647 0.0201684 0.020172 0.0201755 0.020179 0.0201824 0.0201857 0.0201889 0.0201921 0.0201951 0.020198 0.0202008 0.0202035 0.0202061 0.0202086 0.0202109 0.0202131 0.0202152 0.0202171 0.0202189 0.0202206 0.0202221 0.0202235 0.0202248 0.0202259 0.0202268 0.0202276 0.0202283 0.0202289 0.0202293 0.0202296 0.0202297 0.0202297 0.0202297 0.0202295 0.0202292 0.0202288 0.0202283 0.0202277 0.0202271 0.0202264 0.0202257 0.0202249 0.0202241 0.0202232 0.0202224 0.0202215 0.0202207 0.0202199 0.0202191 0.0202184 0.0202178 0.0202172 0.0202167 0.0202163 0.020216 0.0202158 0.0202157 0.0202158 0.020216 0.0202163 0.0202168 0.0202175 0.0202183 0.0202193 0.0202204 0.0202217 0.0202232 0.0202248 0.0202265 0.0202285 0.0202305 0.0202327 0.0202351 0.0202375 0.0202401 0.0202428 0.0202455 0.0202484 0.0202513 0.0202543 0.0202574 0.0202605 0.0202637 0.0202668 0.02027 0.0202732 0.0202763 0.0202795 0.0202827 0.0202858 0.0202889 0.0202919 0.0202949 0.0202979 0.0203008 0.0203037 0.0203065 0.0203093 0.020312 0.0203147 0.0203174 0.02032 0.0203225 0.020325 0.0203275 0.0203299 0.0203323 0.0203346 0.0203368 0.020339 0.0203412 0.0203432 0.0203452 0.020347 0.0203487 0.0203503 0.0203518 0.020353 0.020354 0.0203548 0.0203553 0.0203555 0.0203553 0.0203547 0.0203537 0.0203521 0.0203499 0.020347 0.0203434 0.0203389 0.0203336 0.0203272 0.02032 0.0203119 0.0203031 0.0202937 0.0202838 0.020273 0.0202615 0.0202493 0.0202365 0.0202233 0.0202097 0.0201961 0.0201825 0.0201692 0.0201564 0.0201444 0.0201332 0.0201231 0.0201143 0.0201069 0.020101 0.0200963 0.020092 0.0200864 0.0200795 0.0200723 0.0200656 0.0200593 0.020053 0.020046 0.0200374 0.0200266 0.0200126 0.0199948 0.0199725 0.019945 0.0199117 0.019872 0.0198251 0.0197704 0.019707 0.0196338 0.0195502 0.0194559 0.0193551 0.0192681 0.0192509 0.0193405 0.019443 0.0192044 0.0188442 0.0185382 0.0182075 0.0178034 0.0172513 0.0165523 0.0159709 0.0157572 0.0150399 0.0136598 0.0121415 0.0124606 0 0 0 0 0 0 0 0 0 0 0 0 0 0 0 0 0 0 0 0 0 0 0 0 0 0 0 0 0 0 0 0 0 0 0 0 0 0 0 0 0 0 0 0 0 0 0 0 0 0 0 0 0 0 0 0 0 0 0 0 0 0 0 0 0 0 0 0 0 0 0 0 0 0 0 0 0 0 0 0 0 0 0 0 0 0 0 0 0 0 0 0 0 0 0 0 0 0 0 0 0 0 0 0 0 0 0 0 0 0 0 0 0 0 0 0 0 0 0 0 0 0 0 0 0 0 0 0 0 0 0 0 0 0 0 0 0 0 0 0 0 0 0 0 0 0 0 0 0 0 0 0 0 0 0 0 0 0 0 0 0 0 0 0 0 0 0 
0.02 0.02 0.02 0.02 0.02 0.02 0.02 0.02 0.02 0.02 0.02 0.02 0.02 0.02 0.02 0.02 0.02 0.02 0.02 0.02 0.02 0.02 0.02 0.02 0.02 0.02 0.02 0.02 0.02 0.02 0.02 0.02 0.02 0.02 0.02 0.02 0.02 0.02 0.02 0.02 0.02 0.02 0.02 0.02 0.02 0.02 0.02 0.02 0.02 0.02 0.02 0.02 0.02 0.02 0.02 0.02 0.02 0.02 0.02 0.02 0.02 0.02 0.02 0.02 0.02 0.02 0.02 0.02 0.02 0.02 0.02 0.02 0.02 0.02 0.02 0.02 0.02 0.02 0.02 0.02 0.02 0.02 0.02 0.02 0.02 0.02 0.02 0.02 0.02 0.02 0.02 0.02 0.02 0.02 0.02 0.02 0.02 0.02 0.02 0.02 0.02 0.02 0.02 0.02 0.02 0.02 0.02 0.02 0.02 0.02 0.02 0.02 0.02 0.02 0.02 0.02 0.02 0.02 0.02 0.02 0.02 0.02 0.02 0.02 0.02 0.02 0.02 0.02 0.02 0.02 0.02 0.02 0.02 0.02 0.02 0.02 0.02 0.02 0.02 0.02 0.02 0.02 0.02 0.02 0.0200001 0.0200001 0.0200001 0.0200001 0.0200001 0.0200001 0.0200001 0.0200001 0.0200001 0.0200001 0.0200001 0.0200001 0.0200002 0.0200002 0.0200002 0.0200002 0.0200002 0.0200003 0.0200003 0.0200003 0.0200003 0.0200004 0.0200004 0.0200004 0.0200005 0.0200005 0.0200006 0.0200006 0.0200007 0.0200008 0.0200008 0.0200009 0.020001 0.0200011 0.0200012 0.0200013 0.0200014 0.0200016 0.0200017 0.0200019 0.0200021 0.0200023 0.0200025 0.0200027 0.0200029 0.0200032 0.0200035 0.0200038 0.0200041 0.0200045 0.0200049 0.0200053 0.0200058 0.0200063 0.0200068 0.0200074 0.020008 0.0200087 0.0200094 0.0200102 0.020011 0.0200118 0.0200128 0.0200137 0.0200148 0.0200159 0.0200171 0.0200183 0.0200196 0.020021 0.0200225 0.0200241 0.0200257 0.0200274 0.0200292 0.0200311 0.0200331 0.0200351 0.0200373 0.0200395 0.0200418 0.0200443 0.0200468 0.0200494 0.020052 0.0200548 0.0200577 0.0200606 0.0200637 0.0200668 0.02007 0.0200732 0.0200766 0.02008 0.0200835 0.020087 0.0200906 0.0200943 0.020098 0.0201017 0.0201055 0.0201094 0.0201133 0.0201172 0.0201211 0.020125 0.020129 0.0201329 0.0201368 0.0201408 0.0201447 0.0201485 0.0201524 0.0201562 0.0201599 0.0201636 0.0201673 0.0201709 0.0201744 0.0201779 0.0201813 0.0201846 0.0201878 0.0201909 0.0201939 0.0201968 0.0201996 0.0202023 0.0202048 0.0202073 0.0202096 0.0202118 0.0202138 0.0202158 0.0202175 0.0202192 0.0202207 0.020222 0.0202232 0.0202243 0.0202252 0.020226 0.0202267 0.0202272 0.0202275 0.0202278 0.0202279 0.0202279 0.0202277 0.0202275 0.0202271 0.0202267 0.0202261 0.0202255 0.0202248 0.020224 0.0202232 0.0202223 0.0202214 0.0202205 0.0202196 0.0202186 0.0202177 0.0202168 0.0202159 0.0202151 0.0202143 0.0202136 0.020213 0.0202124 0.020212 0.0202116 0.0202114 0.0202113 0.0202114 0.0202116 0.0202119 0.0202124 0.020213 0.0202138 0.0202148 0.0202159 0.0202172 0.0202186 0.0202202 0.0202219 0.0202238 0.0202258 0.020228 0.0202303 0.0202327 0.0202352 0.0202378 0.0202405 0.0202432 0.0202461 0.020249 0.0202519 0.0202549 0.020258 0.020261 0.0202641 0.0202672 0.0202703 0.0202733 0.0202764 0.0202794 0.0202824 0.0202854 0.0202884 0.0202913 0.0202942 0.020297 0.0202998 0.0203026 0.0203053 0.020308 0.0203107 0.0203133 0.0203159 0.0203185 0.020321 0.0203235 0.0203259 0.0203283 0.0203307 0.0203329 0.0203351 0.0203372 0.0203392 0.0203411 0.0203429 0.0203444 0.0203458 0.020347 0.0203479 0.0203486 0.0203489 0.0203488 0.0203483 0.0203473 0.0203457 0.0203436 0.0203407 0.0203371 0.0203328 0.0203275 0.0203215 0.0203146 0.0203069 0.0202986 0.0202895 0.0202795 0.0202687 0.0202572 0.0202449 0.020232 0.0202187 0.020205 0.0201912 0.0201774 0.0201639 0.0201508 0.0201383 0.0201268 0.0201162 0.0201069 0.0200989 0.0200923 0.0200869 0.0200824 0.0200776 0.0200713 0.020064 0.0200561 0.0200479 0.0200392 0.0200295 0.0200181 0.0200042 0.0199871 0.019966 0.0199402 0.019909 0.0198718 0.0198279 0.0197766 0.0197172 0.0196488 0.0195704 0.0194816 0.0193838 0.0192849 0.0192081 0.0191861 0.0192115 0.0191957 0.0190052 0.018718 0.0184086 0.0180564 0.0176425 0.0171334 0.0165256 0.015966 0.0153798 0.0145903 0.0132187 0.0118469 0.0107956 0.00910661 0.00762845 0.00478744 0 0 0 0 0 0 0 0 0 0 0 0 0 0 0 0 0 0 0 0 0 0 0 0 0 0 0 0 0 0 0 0 0 0 0 0 0 0 0 0 0 0 0 0 0 0 0 0 0 0 0 0 0 0 0 0 0 0 0 0 0 0 0 0 0 0 0 0 0 0 0 0 0 0 0 0 0 0 0 0 0 0 0 0 0 0 0 0 0 0 0 0 0 0 0 0 0 0 0 0 0 0 0 0 0 0 0 0 0 0 0 0 0 0 0 0 0 0 0 0 0 0 0 0 0 0 0 0 0 0 0 0 0 0 0 0 0 0 0 0 0 0 0 0 0 0 0 0 0 0 0 0 0 0 0 0 0 0 0 0 0 0 0 -2.1684e-19 
0.02 0.02 0.02 0.02 0.02 0.02 0.02 0.02 0.02 0.02 0.02 0.02 0.02 0.02 0.02 0.02 0.02 0.02 0.02 0.02 0.02 0.02 0.02 0.02 0.02 0.02 0.02 0.02 0.02 0.02 0.02 0.02 0.02 0.02 0.02 0.02 0.02 0.02 0.02 0.02 0.02 0.02 0.02 0.02 0.02 0.02 0.02 0.02 0.02 0.02 0.02 0.02 0.02 0.02 0.02 0.02 0.02 0.02 0.02 0.02 0.02 0.02 0.02 0.02 0.02 0.02 0.02 0.02 0.02 0.02 0.02 0.02 0.02 0.02 0.02 0.02 0.02 0.02 0.02 0.02 0.02 0.02 0.02 0.02 0.02 0.02 0.02 0.02 0.02 0.02 0.02 0.02 0.02 0.02 0.02 0.02 0.02 0.02 0.02 0.02 0.02 0.02 0.02 0.02 0.02 0.02 0.02 0.02 0.02 0.02 0.02 0.02 0.02 0.02 0.02 0.02 0.02 0.02 0.02 0.02 0.02 0.02 0.02 0.02 0.02 0.02 0.02 0.02 0.02 0.02 0.02 0.02 0.02 0.02 0.02 0.02 0.02 0.02 0.02 0.02 0.02 0.02 0.02 0.02 0.02 0.0200001 0.0200001 0.0200001 0.0200001 0.0200001 0.0200001 0.0200001 0.0200001 0.0200001 0.0200001 0.0200001 0.0200002 0.0200002 0.0200002 0.0200002 0.0200002 0.0200002 0.0200003 0.0200003 0.0200003 0.0200004 0.0200004 0.0200004 0.0200005 0.0200005 0.0200006 0.0200006 0.0200007 0.0200007 0.0200008 0.0200009 0.020001 0.0200011 0.0200012 0.0200013 0.0200014 0.0200015 0.0200017 0.0200018 0.020002 0.0200022 0.0200024 0.0200026 0.0200028 0.0200031 0.0200034 0.0200037 0.020004 0.0200044 0.0200048 0.0200052 0.0200056 0.0200061 0.0200067 0.0200072 0.0200078 0.0200085 0.0200092 0.0200099 0.0200107 0.0200116 0.0200125 0.0200135 0.0200145 0.0200156 0.0200168 0.020018 0.0200193 0.0200207 0.0200221 0.0200237 0.0200253 0.020027 0.0200287 0.0200306 0.0200326 0.0200346 0.0200367 0.0200389 0.0200412 0.0200436 0.0200461 0.0200487 0.0200514 0.0200541 0.0200569 0.0200599 0.0200629 0.020066 0.0200691 0.0200724 0.0200757 0.0200791 0.0200825 0.0200861 0.0200896 0.0200933 0.020097 0.0201007 0.0201045 0.0201083 0.0201121 0.020116 0.0201199 0.0201238 0.0201277 0.0201316 0.0201355 0.0201394 0.0201433 0.0201471 0.0201509 0.0201547 0.0201585 0.0201621 0.0201658 0.0201693 0.0201728 0.0201763 0.0201796 0.0201829 0.020186 0.0201891 0.0201921 0.020195 0.0201977 0.0202004 0.0202029 0.0202053 0.0202076 0.0202097 0.0202118 0.0202136 0.0202154 0.020217 0.0202184 0.0202197 0.0202209 0.0202219 0.0202228 0.0202235 0.0202241 0.0202246 0.0202249 0.0202251 0.0202251 0.020225 0.0202248 0.0202245 0.0202241 0.0202236 0.0202229 0.0202222 0.0202214 0.0202205 0.0202196 0.0202186 0.0202176 0.0202166 0.0202155 0.0202144 0.0202133 0.0202123 0.0202113 0.0202103 0.0202093 0.0202085 0.0202077 0.020207 0.0202063 0.0202058 0.0202054 0.0202052 0.020205 0.020205 0.0202051 0.0202054 0.0202058 0.0202064 0.0202071 0.020208 0.020209 0.0202102 0.0202116 0.0202131 0.0202147 0.0202165 0.0202184 0.0202204 0.0202226 0.0202249 0.0202273 0.0202297 0.0202323 0.0202349 0.0202377 0.0202404 0.0202433 0.0202461 0.020249 0.020252 0.0202549 0.0202579 0.0202608 0.0202638 0.0202668 0.0202697 0.0202727 0.0202756 0.0202785 0.0202814 0.0202842 0.0202871 0.0202899 0.0202927 0.0202955 0.0202983 0.020301 0.0203037 0.0203064 0.0203091 0.0203118 0.0203144 0.0203169 0.0203195 0.0203219 0.0203243 0.0203266 0.0203288 0.0203309 0.0203329 0.0203346 0.0203362 0.0203376 0.0203387 0.0203395 0.02034 0.0203401 0.0203397 0.0203389 0.0203375 0.0203355 0.0203328 0.0203295 0.0203253 0.0203204 0.0203147 0.0203083 0.020301 0.0202929 0.020284 0.0202741 0.0202634 0.0202519 0.0202396 0.0202268 0.0202134 0.0201996 0.0201857 0.0201718 0.020158 0.0201446 0.0201319 0.0201199 0.0201089 0.020099 0.0200903 0.0200829 0.0200767 0.0200713 0.0200661 0.02006 0.0200524 0.0200435 0.0200335 0.0200223 0.0200096 0.0199948 0.0199773 0.0199564 0.0199312 0.019901 0.0198652 0.0198231 0.0197739 0.019717 0.0196517 0.0195769 0.019492 0.0193969 0.0192949 0.0191956 0.0191178 0.0190757 0.0190495 0.0189775 0.018801 0.0185436 0.0182355 0.0178753 0.0174652 0.0170077 0.0164717 0.0158129 0.0151769 0.0142947 0.0131344 0.0116798 0.0103482 0.00856037 0.0065417 0.00406279 0.0017521 -0.0020609 0 0 0 0 0 0 0 0 0 0 0 0 0 0 0 0 0 0 0 0 0 0 0 0 0 0 0 0 0 0 0 0 0 0 0 0 0 0 0 0 0 0 0 0 0 0 0 0 0 0 0 0 0 0 0 0 0 0 0 0 0 0 0 0 0 0 0 0 0 0 0 0 0 0 0 0 0 0 0 0 0 0 0 0 0 0 0 0 0 0 0 0 0 0 0 0 0 0 0 0 0 0 0 0 0 0 0 0 0 0 0 0 0 0 0 0 0 0 0 0 0 0 0 0 0 0 0 0 0 0 0 0 0 0 0 0 0 0 0 0 0 0 0 0 0 0 0 0 0 0 0 0 0 0 0 0 0 0 0 0 -0.0055171 -2.1684e-19 
0.02 0.02 0.02 0.02 0.02 0.02 0.02 0.02 0.02 0.02 0.02 0.02 0.02 0.02 0.02 0.02 0.02 0.02 0.02 0.02 0.02 0.02 0.02 0.02 0.02 0.02 0.02 0.02 0.02 0.02 0.02 0.02 0.02 0.02 0.02 0.02 0.02 0.02 0.02 0.02 0.02 0.02 0.02 0.02 0.02 0.02 0.02 0.02 0.02 0.02 0.02 0.02 0.02 0.02 0.02 0.02 0.02 0.02 0.02 0.02 0.02 0.02 0.02 0.02 0.02 0.02 0.02 0.02 0.02 0.02 0.02 0.02 0.02 0.02 0.02 0.02 0.02 0.02 0.02 0.02 0.02 0.02 0.02 0.02 0.02 0.02 0.02 0.02 0.02 0.02 0.02 0.02 0.02 0.02 0.02 0.02 0.02 0.02 0.02 0.02 0.02 0.02 0.02 0.02 0.02 0.02 0.02 0.02 0.02 0.02 0.02 0.02 0.02 0.02 0.02 0.02 0.02 0.02 0.02 0.02 0.02 0.02 0.02 0.02 0.02 0.02 0.02 0.02 0.02 0.02 0.02 0.02 0.02 0.02 0.02 0.02 0.02 0.02 0.02 0.02 0.02 0.02 0.02 0.02 0.02 0.0200001 0.0200001 0.0200001 0.0200001 0.0200001 0.0200001 0.0200001 0.0200001 0.0200001 0.0200001 0.0200001 0.0200001 0.0200002 0.0200002 0.0200002 0.0200002 0.0200002 0.0200002 0.0200003 0.0200003 0.0200003 0.0200004 0.0200004 0.0200004 0.0200005 0.0200005 0.0200006 0.0200006 0.0200007 0.0200008 0.0200008 0.0200009 0.020001 0.0200011 0.0200012 0.0200013 0.0200015 0.0200016 0.0200017 0.0200019 0.0200021 0.0200023 0.0200025 0.0200027 0.020003 0.0200033 0.0200036 0.0200039 0.0200042 0.0200046 0.020005 0.0200055 0.0200059 0.0200065 0.020007 0.0200076 0.0200082 0.0200089 0.0200097 0.0200104 0.0200113 0.0200122 0.0200131 0.0200141 0.0200152 0.0200164 0.0200176 0.0200189 0.0200202 0.0200216 0.0200232 0.0200247 0.0200264 0.0200282 0.02003 0.0200319 0.0200339 0.020036 0.0200382 0.0200405 0.0200429 0.0200453 0.0200479 0.0200505 0.0200532 0.020056 0.0200589 0.0200619 0.020065 0.0200681 0.0200713 0.0200746 0.020078 0.0200814 0.0200849 0.0200884 0.020092 0.0200957 0.0200994 0.0201031 0.0201069 0.0201107 0.0201145 0.0201184 0.0201222 0.0201261 0.02013 0.0201338 0.0201377 0.0201415 0.0201453 0.0201491 0.0201528 0.0201565 0.0201601 0.0201637 0.0201672 0.0201707 0.0201741 0.0201774 0.0201806 0.0201837 0.0201867 0.0201897 0.0201925 0.0201952 0.0201978 0.0202003 0.0202026 0.0202049 0.020207 0.0202089 0.0202108 0.0202124 0.020214 0.0202154 0.0202166 0.0202177 0.0202187 0.0202195 0.0202202 0.0202207 0.0202211 0.0202213 0.0202214 0.0202214 0.0202212 0.0202209 0.0202205 0.02022 0.0202193 0.0202186 0.0202178 0.0202169 0.0202159 0.0202148 0.0202137 0.0202125 0.0202114 0.0202101 0.0202089 0.0202077 0.0202064 0.0202052 0.0202041 0.0202029 0.0202019 0.0202009 0.0201999 0.0201991 0.0201984 0.0201977 0.0201972 0.0201968 0.0201965 0.0201964 0.0201964 0.0201966 0.0201969 0.0201973 0.0201979 0.0201987 0.0201996 0.0202006 0.0202019 0.0202032 0.0202047 0.0202063 0.0202081 0.02021 0.020212 0.0202141 0.0202163 0.0202186 0.020221 0.0202235 0.020226 0.0202287 0.0202313 0.0202341 0.0202368 0.0202396 0.0202424 0.0202453 0.0202481 0.020251 0.0202539 0.0202568 0.0202597 0.0202626 0.0202655 0.0202684 0.0202713 0.0202742 0.0202771 0.02028 0.0202829 0.0202858 0.0202886 0.0202915 0.0202944 0.0202972 0.0203 0.0203028 0.0203056 0.0203083 0.0203109 0.0203135 0.0203159 0.0203183 0.0203205 0.0203226 0.0203244 0.020326 0.0203274 0.0203285 0.0203292 0.0203296 0.0203295 0.0203289 0.0203278 0.0203261 0.0203237 0.0203207 0.0203169 0.0203124 0.0203071 0.020301 0.0202941 0.0202862 0.0202774 0.0202677 0.0202572 0.0202458 0.0202336 0.0202208 0.0202075 0.0201938 0.0201798 0.0201658 0.0201518 0.0201383 0.0201252 0.0201128 0.0201013 0.0200908 0.0200813 0.020073 0.0200657 0.0200592 0.020053 0.0200461 0.0200378 0.0200278 0.020016 0.0200022 0.0199864 0.019968 0.0199465 0.0199211 0.0198912 0.0198559 0.0198147 0.0197668 0.0197115 0.0196481 0.0195757 0.0194935 0.019401 0.0192988 0.0191911 0.0190874 0.0190001 0.0189333 0.0188669 0.01876 0.0185801 0.0183304 0.0180221 0.0176594 0.0172515 0.0168097 0.0163187 0.015721 0.0149617 0.014044 0.0129726 0.01168 0.0100926 0.00824079 0.0061544 0.00371473 0.000836606 -0.00283479 -0.00679985 0 0 0 0 0 0 0 0 0 0 0 0 0 0 0 0 0 0 0 0 0 0 0 0 0 0 0 0 0 0 0 0 0 0 0 0 0 0 0 0 0 0 0 0 0 0 0 0 0 0 0 0 0 0 0 0 0 0 0 0 0 0 0 0 0 0 0 0 0 0 0 0 0 0 0 0 0 0 0 0 0 0 0 0 0 0 0 0 0 0 0 0 0 0 0 0 0 0 0 0 0 0 0 0 0 0 0 0 0 0 0 0 0 0 0 0 0 0 0 0 0 0 0 0 0 0 0 0 0 0 0 0 0 0 0 0 0 0 0 0 0 0 0 0 0 0 0 0 0 0 0 0 0 0 0 0 0 0 0 -0.0111531 -2.1684e-19 