# vtk DataFile Version 2.0
iteration 1728
ASCII

DATASET STRUCTURED_POINTS
DIMENSIONS 621 64 1
ORIGIN 0 0 0
SPACING 0.00161031 0.00161031 0.00161031

POINT_DATA 39744
SCALARS P float 1
LOOKUP_TABLE default
0 0 0 0 0 0 0 0 0 0 0 0 0 0 0 0 0 0 0 0 0 0 0 0 0 0 0 0 0 0 0 0 0 0 0 0 0 0 0 0 0 0 0 0 0 0 0 0 0 0 0 0 0 0 0 0 0 0 0 0 0 0 0 0 0 0 0 0 0 0 0 0 0 0 0 0 0 0 0 0 0 0 0 0 0 0 0 0 0 0 0 0 0 0 0 0 0 0 0 0 0 0 0 0 0 0 0 0 0 0 0 0 0 0 0 0 0 0 0 0 0 0 0 0 0 0 0 0 0 0 0 0 0 0 0 0 0 0 0 0 0 0 0 0 0 0 0 0 0 0 0 0 0 0 0 0 0 0 0 0 0 0 0 0 0 0 0 0 0 0 0 0 0 0 0 0 0 0 0 0 0 0 0 0 0 0 0 0 0 0 0 0 0 0 0 0 0 0 0 0 0 0 0 0 0 0 0 0 0 0 0 0 0 0 0 0 0 0 0 0 0 0 0 0 0 0 0 0 0 0 0 0 0 0 0 0 0 0 0 0 0 0 0 0 0 0 0 0 0 0 0 0 0 0 0 0 0 0 0 0 0 0 0 0 0 0 0 0 0 0 0 0 0 0 0 0 0 0 0 0 0 0 0 0 0 0 0 0 0 0 0 0 0 0 0 0 0 0 0 0 0 0 0 0 0 0 0 0 0 0 0 0 0 0 0 0 0 0 0 0 0 0 0 0 0 0 0 0 0 0 0 0 0 0 0 0 0 0 0 0 0 0 0 0 0 0 0 0 0 0 0 0 0 0 0 0 0 0 0 0 0 0 0 0 0 0 0 0 0 0 0 0 0 0 0 0 0 0 0 0 0 0 0 0 0 0 0 0 0 0 0 0 0 0 0 0 0 0 0 0 0 0 0 0 0 0 0 0 0 0 0 0 0 0 0 0 0 0 0 0 0 0 0 0 0 0 0 0 0 0 0 0 0 0 0 0 0 0 0 0 0 0 0 0 0 0 0 0 0 0 0 0 0 0 0 0 0 0 0 0 0 0 0 0 0 0 0 0 0 0 0 0 0 0 0 0 0 0 0 0 0 0 0 0 0 0 0 0 0 0 0 0 0 0 0 0 0 0 0 0 0 0 0 0 0 0 0 0 0 0 0 0 0 0 0 0 0 0 0 0 0 0 0 0 0 0 0 0 0 0 0 0 0 0 0 0 0 0 0 0 0 0 0 0 0 0 0 0 0 0 0 0 0 0 0 0 0 0 0 0 0 0 0 0 0 0 0 0 0 0 0 0 0 0 0 0 0 0 0 0 0 0 0 0 0 0 0 0 0 0 0 0 0 0 0 0 0 0 0 0 0 0 0 0 0 0 0 0 0 0 0 0 0 0 0 0 0 0 0 0 0 
0.02 0.02 0.02 0.02 0.02 0.02 0.02 0.02 0.02 0.02 0.02 0.02 0.02 0.02 0.02 0.02 0.02 0.02 0.02 0.02 0.02 0.02 0.02 0.02 0.02 0.02 0.02 0.02 0.02 0.02 0.02 0.02 0.02 0.02 0.02 0.02 0.02 0.02 0.02 0.02 0.02 0.02 0.02 0.02 0.02 0.02 0.02 0.02 0.02 0.02 0.02 0.02 0.02 0.02 0.02 0.02 0.02 0.02 0.02 0.02 0.02 0.02 0.02 0.02 0.02 0.02 0.02 0.02 0.02 0.02 0.02 0.02 0.02 0.02 0.02 0.02 0.02 0.02 0.02 0.02 0.02 0.02 0.02 0.02 0.02 0.02 0.02 0.02 0.02 0.02 0.02 0.02 0.02 0.02 0.02 0.02 0.02 0.02 0.02 0.02 0.02 0.02 0.02 0.02 0.02 0.02 0.02 0.02 0.02 0.02 0.02 0.02 0.02 0.02 0.02 0.02 0.02 0.02 0.02 0.02 0.02 0.02 0.02 0.0200001 0.0200001 0.0200001 0.0200001 0.0200001 0.0200001 0.0200001 0.0200001 0.0200001 0.0200001 0.0200001 0.0200001 0.0200001 0.0200002 0.0200002 0.0200002 0.0200002 0.0200002 0.0200002 0.0200002 0.0200003 0.0200003 0.0200003 0.0200003 0.0200003 0.0200003 0.0200004 0.0200004 0.0200004 0.0200004 0.0200004 0.0200005 0.0200005 0.0200005 0.0200005 0.0200005 0.0200006 0.0200006 0.0200006 0.0200006 0.0200006 0.0200006 0.0200006 0.0200006 0.0200005 0.0200005 0.0200005 0.0200004 0.0200004 0.0200003 0.0200002 0.0200001 0.02 0.0199999 0.0199997 0.0199995 0.0199993 0.0199991 0.0199988 0.0199985 0.0199982 0.0199978 0.0199974 0.0199969 0.0199964 0.0199958 0.0199952 0.0199945 0.0199938 0.019993 0.0199921 0.0199911 0.0199901 0.0199889 0.0199877 0.0199864 0.019985 0.0199835 0.0199819 0.0199801 0.0199783 0.0199764 0.0199743 0.0199721 0.0199698 0.0199674 0.0199648 0.0199622 0.0199594 0.0199564 0.0199534 0.0199502 0.0199469 0.0199434 0.0199399 0.0199362 0.0199324 0.0199285 0.0199245 0.0199204 0.0199163 0.019912 0.0199077 0.0199033 0.0198988 0.0198943 0.0198897 0.0198851 0.0198804 0.0198758 0.0198712 0.0198665 0.0198619 0.0198573 0.0198528 0.0198483 0.019844 0.0198397 0.0198355 0.0198315 0.0198276 0.0198238 0.0198203 0.0198169 0.0198138 0.0198109 0.0198082 0.0198058 0.0198037 0.0198019 0.0198004 0.0197993 0.0197985 0.0197981 0.0197981 0.0197985 0.0197994 0.0198007 0.0198024 0.0198047 0.0198074 0.0198106 0.0198144 0.0198187 0.0198235 0.0198289 0.0198349 0.0198414 0.0198485 0.0198562 0.0198644 0.0198733 0.0198828 0.0198928 0.0199034 0.0199146 0.0199264 0.0199387 0.0199516 0.019965 0.0199789 0.0199933 0.0200082 0.0200236 0.0200393 0.0200555 0.020072 0.0200888 0.0201059 0.0201233 0.0201408 0.0201586 0.0201764 0.0201944 0.0202123 0.0202303 0.0202481 0.0202658 0.0202834 0.0203007 0.0203177 0.0203344 0.0203507 0.0203666 0.0203819 0.0203967 0.0204109 0.0204245 0.0204374 0.0204495 0.0204609 0.0204714 0.0204811 0.0204899 0.0204977 0.0205046 0.0205105 0.0205154 0.0205192 0.020522 0.0205237 0.0205244 0.0205239 0.0205224 0.0205197 0.020516 0.0205112 0.0205053 0.0204983 0.0204902 0.0204811 0.020471 0.0204598 0.0204477 0.0204346 0.0204206 0.0204057 0.0203899 0.0203733 0.0203558 0.0203377 0.0203187 0.0202991 0.0202789 0.0202581 0.0202367 0.0202148 0.0201924 0.0201696 0.0201464 0.0201229 0.0200991 0.020075 0.0200507 0.0200263 0.0200018 0.0199771 0.0199524 0.0199277 0.019903 0.0198783 0.0198536 0.019829 0.0198045 0.01978 0.0197555 0.0197309 0.0197061 0.0196811 0.0196557 0.0196297 0.0196031 0.0195756 0.0195472 0.0195176 0.0194868 0.0194544 0.0194205 0.0193847 0.019347 0.0193071 0.0192648 0.0192198 0.0191721 0.0191212 0.019067 0.0190093 0.0189478 0.0188823 0.0188129 0.0187395 0.018662 0.0185808 0.0184959 0.0184078 0.0183168 0.0182233 0.0181277 0.0180307 0.0179325 0.0178335 0.0177341 0.0176342 0.0175333 0.017431 0.017326 0.0172165 0.0170977 0.0169622 0.016803 0.0166308 0.0164917 0.0166207 0.0182276 0 0 0 0 0 0 0 0 0 0 0 0 0 0 0 0 0 0 0 0 0 0 0 0 0 0 0 0 0 0 0 0 0 0 0 0 0 0 0 0 0 0 0 0 0 0 0 0 0 0 0 0 0 0 0 0 0 0 0 0 0 0 0 0 0 0 0 0 0 0 0 0 0 0 0 0 0 0 0 0 0 0 0 0 0 0 0 0 0 0 0 0 0 0 0 0 0 0 0 0 0 0 0 0 0 0 0 0 0 0 0 0 0 0 0 0 0 0 0 0 0 0 0 0 0 0 0 0 0 0 0 0 0 0 0 0 0 0 0 0 0 0 0 0 0 0 0 0 0 0 0 0 0 0 0 0 0 0 0 0 0 0 0 0 0 0 0 0 0 0 0 0 0 0 0 0 0 0 0 0 0 0 0 0 0 0 0 0 0 0 0 0 0 0 0 0 0 0 0 0 0 0 0 0 
0.02 0.02 0.02 0.02 0.02 0.02 0.02 0.02 0.02 0.02 0.02 0.02 0.02 0.02 0.02 0.02 0.02 0.02 0.02 0.02 0.02 0.02 0.02 0.02 0.02 0.02 0.02 0.02 0.02 0.02 0.02 0.02 0.02 0.02 0.02 0.02 0.02 0.02 0.02 0.02 0.02 0.02 0.02 0.02 0.02 0.02 0.02 0.02 0.02 0.02 0.02 0.02 0.02 0.02 0.02 0.02 0.02 0.02 0.02 0.02 0.02 0.02 0.02 0.02 0.02 0.02 0.02 0.02 0.02 0.02 0.02 0.02 0.02 0.02 0.02 0.02 0.02 0.02 0.02 0.02 0.02 0.02 0.02 0.02 0.02 0.02 0.02 0.02 0.02 0.02 0.02 0.02 0.02 0.02 0.02 0.02 0.02 0.02 0.02 0.02 0.02 0.02 0.02 0.02 0.02 0.02 0.02 0.02 0.02 0.02 0.02 0.02 0.02 0.02 0.02 0.02 0.02 0.02 0.02 0.02 0.02 0.02 0.02 0.0200001 0.0200001 0.0200001 0.0200001 0.0200001 0.0200001 0.0200001 0.0200001 0.0200001 0.0200001 0.0200001 0.0200001 0.0200001 0.0200002 0.0200002 0.0200002 0.0200002 0.0200002 0.0200002 0.0200002 0.0200002 0.0200003 0.0200003 0.0200003 0.0200003 0.0200003 0.0200004 0.0200004 0.0200004 0.0200004 0.0200004 0.0200005 0.0200005 0.0200005 0.0200005 0.0200005 0.0200005 0.0200006 0.0200006 0.0200006 0.0200006 0.0200006 0.0200006 0.0200006 0.0200005 0.0200005 0.0200005 0.0200004 0.0200004 0.0200003 0.0200002 0.0200001 0.02 0.0199999 0.0199997 0.0199995 0.0199993 0.0199991 0.0199988 0.0199985 0.0199982 0.0199978 0.0199974 0.0199969 0.0199964 0.0199958 0.0199952 0.0199945 0.0199938 0.019993 0.0199921 0.0199911 0.0199901 0.0199889 0.0199877 0.0199864 0.019985 0.0199835 0.0199819 0.0199802 0.0199784 0.0199764 0.0199744 0.0199722 0.0199699 0.0199675 0.0199649 0.0199623 0.0199595 0.0199566 0.0199535 0.0199503 0.019947 0.0199436 0.0199401 0.0199364 0.0199326 0.0199288 0.0199248 0.0199207 0.0199165 0.0199123 0.0199079 0.0199035 0.0198991 0.0198946 0.01989 0.0198854 0.0198808 0.0198762 0.0198715 0.0198669 0.0198623 0.0198577 0.0198532 0.0198487 0.0198443 0.01984 0.0198359 0.0198318 0.0198279 0.0198242 0.0198206 0.0198172 0.0198141 0.0198111 0.0198084 0.019806 0.0198039 0.0198021 0.0198005 0.0197994 0.0197986 0.0197981 0.0197981 0.0197985 0.0197993 0.0198005 0.0198022 0.0198044 0.019807 0.0198102 0.0198139 0.0198181 0.0198228 0.0198281 0.019834 0.0198404 0.0198474 0.019855 0.0198632 0.0198719 0.0198813 0.0198912 0.0199017 0.0199128 0.0199244 0.0199366 0.0199494 0.0199626 0.0199764 0.0199907 0.0200054 0.0200206 0.0200362 0.0200522 0.0200686 0.0200853 0.0201022 0.0201194 0.0201369 0.0201544 0.0201721 0.0201899 0.0202077 0.0202255 0.0202432 0.0202608 0.0202782 0.0202953 0.0203122 0.0203288 0.0203449 0.0203606 0.0203759 0.0203905 0.0204046 0.0204181 0.0204308 0.0204429 0.0204541 0.0204645 0.0204741 0.0204828 0.0204906 0.0204974 0.0205032 0.0205081 0.0205119 0.0205146 0.0205163 0.0205169 0.0205165 0.020515 0.0205123 0.0205086 0.0205038 0.020498 0.020491 0.020483 0.020474 0.020464 0.0204529 0.0204409 0.0204279 0.020414 0.0203993 0.0203836 0.0203672 0.0203499 0.0203319 0.0203132 0.0202938 0.0202737 0.0202531 0.0202319 0.0202102 0.0201881 0.0201655 0.0201425 0.0201192 0.0200956 0.0200718 0.0200478 0.0200236 0.0199992 0.0199748 0.0199503 0.0199258 0.0199012 0.0198768 0.0198523 0.0198279 0.0198036 0.0197792 0.0197549 0.0197304 0.0197058 0.0196809 0.0196557 0.0196299 0.0196034 0.0195761 0.0195479 0.0195185 0.0194878 0.0194557 0.0194219 0.0193864 0.0193488 0.0193091 0.019267 0.0192222 0.0191746 0.0191239 0.0190698 0.0190121 0.0189507 0.0188853 0.0188158 0.0187422 0.0186646 0.0185831 0.0184978 0.0184092 0.0183175 0.0182233 0.0181268 0.0180285 0.017929 0.0178284 0.0177271 0.017625 0.0175217 0.0174166 0.0173087 0.0171962 0.0170746 0.0169366 0.016778 0.0166131 0.0165034 0.0165755 0.0168477 0.0165137 0.0159655 0.015548 0.0150469 0.0143709 0.0134455 0.0124088 0.0116759 0.0123581 0 0 0 0 0 0 0 0 0 0 0 0 0 0 0 0 0 0 0 0 0 0 0 0 0 0 0 0 0 0 0 0 0 0 0 0 0 0 0 0 0 0 0 0 0 0 0 0 0 0 0 0 0 0 0 0 0 0 0 0 0 0 0 0 0 0 0 0 0 0 0 0 0 0 0 0 0 0 0 0 0 0 0 0 0 0 0 0 0 0 0 0 0 0 0 0 0 0 0 0 0 0 0 0 0 0 0 0 0 0 0 0 0 0 0 0 0 0 0 0 0 0 0 0 0 0 0 0 0 0 0 0 0 0 0 0 0 0 0 0 0 0 0 0 0 0 0 0 0 0 0 0 0 0 0 0 0 0 0 0 0 0 0 0 0 0 0 0 0 0 0 0 0 0 0 0 0 0 0 0 0 0 0 0 0 0 0 0 0 0 0 0 0 0 0 
0.02 0.02 0.02 0.02 0.02 0.02 0.02 0.02 0.02 0.02 0.02 0.02 0.02 0.02 0.02 0.02 0.02 0.02 0.02 0.02 0.02 0.02 0.02 0.02 0.02 0.02 0.02 0.02 0.02 0.02 0.02 0.02 0.02 0.02 0.02 0.02 0.02 0.02 0.02 0.02 0.02 0.02 0.02 0.02 0.02 0.02 0.02 0.02 0.02 0.02 0.02 0.02 0.02 0.02 0.02 0.02 0.02 0.02 0.02 0.02 0.02 0.02 0.02 0.02 0.02 0.02 0.02 0.02 0.02 0.02 0.02 0.02 0.02 0.02 0.02 0.02 0.02 0.02 0.02 0.02 0.02 0.02 0.02 0.02 0.02 0.02 0.02 0.02 0.02 0.02 0.02 0.02 0.02 0.02 0.02 0.02 0.02 0.02 0.02 0.02 0.02 0.02 0.02 0.02 0.02 0.02 0.02 0.02 0.02 0.02 0.02 0.02 0.02 0.02 0.02 0.02 0.02 0.02 0.02 0.02 0.02 0.02 0.02 0.0200001 0.0200001 0.0200001 0.0200001 0.0200001 0.0200001 0.0200001 0.0200001 0.0200001 0.0200001 0.0200001 0.0200001 0.0200001 0.0200001 0.0200002 0.0200002 0.0200002 0.0200002 0.0200002 0.0200002 0.0200002 0.0200003 0.0200003 0.0200003 0.0200003 0.0200003 0.0200003 0.0200004 0.0200004 0.0200004 0.0200004 0.0200004 0.0200005 0.0200005 0.0200005 0.0200005 0.0200005 0.0200005 0.0200005 0.0200005 0.0200005 0.0200005 0.0200005 0.0200005 0.0200005 0.0200005 0.0200004 0.0200004 0.0200003 0.0200003 0.0200002 0.0200001 0.02 0.0199998 0.0199997 0.0199995 0.0199993 0.019999 0.0199988 0.0199985 0.0199981 0.0199978 0.0199973 0.0199969 0.0199964 0.0199958 0.0199952 0.0199945 0.0199937 0.0199929 0.019992 0.0199911 0.01999 0.0199889 0.0199877 0.0199864 0.019985 0.0199835 0.0199819 0.0199802 0.0199784 0.0199764 0.0199744 0.0199722 0.0199699 0.0199675 0.019965 0.0199623 0.0199595 0.0199566 0.0199536 0.0199504 0.0199472 0.0199437 0.0199402 0.0199366 0.0199328 0.019929 0.019925 0.0199209 0.0199168 0.0199125 0.0199082 0.0199038 0.0198994 0.0198949 0.0198904 0.0198858 0.0198812 0.0198765 0.0198719 0.0198673 0.0198627 0.0198582 0.0198536 0.0198492 0.0198448 0.0198405 0.0198364 0.0198323 0.0198284 0.0198247 0.0198211 0.0198177 0.0198145 0.0198116 0.0198089 0.0198065 0.0198043 0.0198025 0.0198009 0.0197997 0.0197989 0.0197984 0.0197983 0.0197987 0.0197994 0.0198006 0.0198022 0.0198043 0.0198069 0.01981 0.0198136 0.0198178 0.0198224 0.0198276 0.0198334 0.0198397 0.0198466 0.0198541 0.0198621 0.0198707 0.0198799 0.0198897 0.0199001 0.019911 0.0199225 0.0199345 0.019947 0.0199601 0.0199737 0.0199878 0.0200023 0.0200173 0.0200326 0.0200484 0.0200645 0.020081 0.0200977 0.0201146 0.0201318 0.0201491 0.0201665 0.020184 0.0202015 0.020219 0.0202364 0.0202537 0.0202708 0.0202877 0.0203042 0.0203205 0.0203363 0.0203518 0.0203667 0.0203811 0.0203949 0.020408 0.0204205 0.0204322 0.0204432 0.0204534 0.0204627 0.0204712 0.0204787 0.0204853 0.0204909 0.0204955 0.0204991 0.0205017 0.0205033 0.0205037 0.0205032 0.0205015 0.0204988 0.020495 0.0204902 0.0204843 0.0204774 0.0204694 0.0204605 0.0204505 0.0204396 0.0204277 0.0204148 0.0204011 0.0203865 0.0203711 0.0203549 0.0203379 0.0203201 0.0203017 0.0202826 0.0202629 0.0202426 0.0202218 0.0202005 0.0201787 0.0201565 0.0201339 0.020111 0.0200879 0.0200645 0.0200408 0.020017 0.0199931 0.0199691 0.019945 0.0199209 0.0198968 0.0198727 0.0198486 0.0198246 0.0198006 0.0197766 0.0197526 0.0197285 0.0197042 0.0196797 0.0196547 0.0196292 0.0196031 0.0195761 0.0195482 0.0195191 0.0194887 0.0194569 0.0194234 0.0193881 0.0193509 0.0193114 0.0192696 0.0192251 0.0191778 0.0191273 0.0190735 0.019016 0.0189547 0.0188893 0.0188199 0.0187462 0.0186685 0.0185867 0.0185011 0.0184119 0.0183195 0.0182243 0.0181267 0.018027 0.0179258 0.0178231 0.0177194 0.0176143 0.0175077 0.0173988 0.0172867 0.0171699 0.0170447 0.0169044 0.0167487 0.0165973 0.0165137 0.0165238 0.0165683 0.0162951 0.0158781 0.0154372 0.014888 0.0142039 0.0133697 0.0123404 0.0114435 0.0108209 0.00938092 0.00754996 0.00553432 0.00472123 0 0 0 0 0 0 0 0 0 0 0 0 0 0 0 0 0 0 0 0 0 0 0 0 0 0 0 0 0 0 0 0 0 0 0 0 0 0 0 0 0 0 0 0 0 0 0 0 0 0 0 0 0 0 0 0 0 0 0 0 0 0 0 0 0 0 0 0 0 0 0 0 0 0 0 0 0 0 0 0 0 0 0 0 0 0 0 0 0 0 0 0 0 0 0 0 0 0 0 0 0 0 0 0 0 0 0 0 0 0 0 0 0 0 0 0 0 0 0 0 0 0 0 0 0 0 0 0 0 0 0 0 0 0 0 0 0 0 0 0 0 0 0 0 0 0 0 0 0 0 0 0 0 0 0 0 0 0 0 0 0 0 0 0 0 0 0 0 0 0 0 0 0 0 0 0 0 0 0 0 0 0 0 0 0 0 0 0 0 0 0 
0.02 0.02 0.02 0.02 0.02 0.02 0.02 0.02 0.02 0.02 0.02 0.02 0.02 0.02 0.02 0.02 0.02 0.02 0.02 0.02 0.02 0.02 0.02 0.02 0.02 0.02 0.02 0.02 0.02 0.02 0.02 0.02 0.02 0.02 0.02 0.02 0.02 0.02 0.02 0.02 0.02 0.02 0.02 0.02 0.02 0.02 0.02 0.02 0.02 0.02 0.02 0.02 0.02 0.02 0.02 0.02 0.02 0.02 0.02 0.02 0.02 0.02 0.02 0.02 0.02 0.02 0.02 0.02 0.02 0.02 0.02 0.02 0.02 0.02 0.02 0.02 0.02 0.02 0.02 0.02 0.02 0.02 0.02 0.02 0.02 0.02 0.02 0.02 0.02 0.02 0.02 0.02 0.02 0.02 0.02 0.02 0.02 0.02 0.02 0.02 0.02 0.02 0.02 0.02 0.02 0.02 0.02 0.02 0.02 0.02 0.02 0.02 0.02 0.02 0.02 0.02 0.02 0.02 0.02 0.02 0.02 0.02 0.02 0.02 0.0200001 0.0200001 0.0200001 0.0200001 0.0200001 0.0200001 0.0200001 0.0200001 0.0200001 0.0200001 0.0200001 0.0200001 0.0200001 0.0200002 0.0200002 0.0200002 0.0200002 0.0200002 0.0200002 0.0200002 0.0200002 0.0200003 0.0200003 0.0200003 0.0200003 0.0200003 0.0200004 0.0200004 0.0200004 0.0200004 0.0200004 0.0200004 0.0200005 0.0200005 0.0200005 0.0200005 0.0200005 0.0200005 0.0200005 0.0200005 0.0200005 0.0200005 0.0200005 0.0200005 0.0200004 0.0200004 0.0200004 0.0200003 0.0200002 0.0200001 0.02 0.0199999 0.0199998 0.0199996 0.0199994 0.0199992 0.019999 0.0199987 0.0199984 0.0199981 0.0199977 0.0199973 0.0199968 0.0199963 0.0199957 0.0199951 0.0199944 0.0199937 0.0199929 0.019992 0.019991 0.01999 0.0199889 0.0199876 0.0199863 0.0199849 0.0199835 0.0199819 0.0199802 0.0199784 0.0199764 0.0199744 0.0199722 0.01997 0.0199676 0.0199651 0.0199624 0.0199596 0.0199567 0.0199537 0.0199506 0.0199473 0.0199439 0.0199404 0.0199368 0.0199331 0.0199292 0.0199253 0.0199213 0.0199171 0.0199129 0.0199086 0.0199043 0.0198999 0.0198954 0.0198909 0.0198863 0.0198817 0.0198771 0.0198725 0.0198679 0.0198634 0.0198588 0.0198543 0.0198499 0.0198456 0.0198413 0.0198371 0.0198331 0.0198292 0.0198255 0.0198219 0.0198185 0.0198153 0.0198124 0.0198097 0.0198072 0.0198051 0.0198032 0.0198016 0.0198004 0.0197995 0.019799 0.0197989 0.0197991 0.0197998 0.0198009 0.0198025 0.0198045 0.0198071 0.0198101 0.0198136 0.0198176 0.0198221 0.0198272 0.0198328 0.019839 0.0198458 0.0198531 0.019861 0.0198694 0.0198784 0.019888 0.0198982 0.0199089 0.0199201 0.0199319 0.0199442 0.019957 0.0199703 0.0199841 0.0199983 0.020013 0.0200281 0.0200435 0.0200593 0.0200754 0.0200917 0.0201083 0.0201251 0.020142 0.020159 0.0201761 0.0201932 0.0202103 0.0202273 0.0202442 0.0202608 0.0202773 0.0202934 0.0203092 0.0203246 0.0203396 0.0203541 0.020368 0.0203814 0.0203941 0.0204062 0.0204175 0.0204281 0.0204378 0.0204468 0.0204548 0.020462 0.0204682 0.0204735 0.0204778 0.0204812 0.0204835 0.0204848 0.0204851 0.0204843 0.0204825 0.0204796 0.0204758 0.0204709 0.0204649 0.020458 0.0204501 0.0204411 0.0204313 0.0204204 0.0204087 0.0203961 0.0203826 0.0203683 0.0203531 0.0203372 0.0203206 0.0203032 0.0202852 0.0202665 0.0202473 0.0202275 0.0202072 0.0201864 0.0201651 0.0201435 0.0201215 0.0200992 0.0200766 0.0200538 0.0200308 0.0200076 0.0199842 0.0199608 0.0199373 0.0199138 0.0198902 0.0198667 0.0198432 0.0198197 0.0197963 0.0197728 0.0197493 0.0197257 0.0197019 0.0196779 0.0196534 0.0196284 0.0196027 0.0195761 0.0195486 0.01952 0.0194901 0.0194587 0.0194257 0.0193909 0.0193541 0.0193152 0.0192738 0.0192298 0.019183 0.019133 0.0190796 0.0190226 0.0189616 0.0188967 0.0188275 0.018754 0.0186764 0.0185945 0.0185087 0.0184192 0.0183262 0.0182301 0.0181313 0.01803 0.0179267 0.0178215 0.0177146 0.0176058 0.0174948 0.0173809 0.0172632 0.0171406 0.0170112 0.0168703 0.0167183 0.0165781 0.0164832 0.0164375 0.016363 0.0161223 0.0157562 0.0153177 0.0147609 0.0140947 0.0133228 0.0124697 0.0114074 0.0104687 0.00906612 0.00736178 0.00551083 0.00378335 0.00156138 -0.000766828 -0.00385112 0 0 0 0 0 0 0 0 0 0 0 0 0 0 0 0 0 0 0 0 0 0 0 0 0 0 0 0 0 0 0 0 0 0 0 0 0 0 0 0 0 0 0 0 0 0 0 0 0 0 0 0 0 0 0 0 0 0 0 0 0 0 0 0 0 0 0 0 0 0 0 0 0 0 0 0 0 0 0 0 0 0 0 0 0 0 0 0 0 0 0 0 0 0 0 0 0 0 0 0 0 0 0 0 0 0 0 0 0 0 0 0 0 0 0 0 0 0 0 0 0 0 0 0 0 0 0 0 0 0 0 0 0 0 0 0 0 0 0 0 0 0 0 0 0 0 0 0 0 0 0 0 0 0 0 0 0 0 0 0 0 0 0 0 0 0 0 0 0 0 0 0 0 0 0 0 0 0 0 0 0 0 0 0 0 0 0 -7.04731e-19 
0.02 0.02 0.02 0.02 0.02 0.02 0.02 0.02 0.02 0.02 0.02 0.02 0.02 0.02 0.02 0.02 0.02 0.02 0.02 0.02 0.02 0.02 0.02 0.02 0.02 0.02 0.02 0.02 0.02 0.02 0.02 0.02 0.02 0.02 0.02 0.02 0.02 0.02 0.02 0.02 0.02 0.02 0.02 0.02 0.02 0.02 0.02 0.02 0.02 0.02 0.02 0.02 0.02 0.02 0.02 0.02 0.02 0.02 0.02 0.02 0.02 0.02 0.02 0.02 0.02 0.02 0.02 0.02 0.02 0.02 0.02 0.02 0.02 0.02 0.02 0.02 0.02 0.02 0.02 0.02 0.02 0.02 0.02 0.02 0.02 0.02 0.02 0.02 0.02 0.02 0.02 0.02 0.02 0.02 0.02 0.02 0.02 0.02 0.02 0.02 0.02 0.02 0.02 0.02 0.02 0.02 0.02 0.02 0.02 0.02 0.02 0.02 0.02 0.02 0.02 0.02 0.02 0.02 0.02 0.02 0.02 0.02 0.02 0.02 0.0200001 0.0200001 0.0200001 0.0200001 0.0200001 0.0200001 0.0200001 0.0200001 0.0200001 0.0200001 0.0200001 0.0200001 0.0200001 0.0200001 0.0200002 0.0200002 0.0200002 0.0200002 0.0200002 0.0200002 0.0200002 0.0200003 0.0200003 0.0200003 0.0200003 0.0200003 0.0200003 0.0200004 0.0200004 0.0200004 0.0200004 0.0200004 0.0200004 0.0200004 0.0200005 0.0200005 0.0200005 0.0200005 0.0200005 0.0200005 0.0200005 0.0200005 0.0200004 0.0200004 0.0200004 0.0200003 0.0200003 0.0200002 0.0200002 0.0200001 0.02 0.0199998 0.0199997 0.0199995 0.0199993 0.0199991 0.0199989 0.0199986 0.0199983 0.019998 0.0199976 0.0199972 0.0199967 0.0199962 0.0199956 0.019995 0.0199943 0.0199936 0.0199928 0.0199919 0.0199909 0.0199899 0.0199888 0.0199876 0.0199863 0.0199849 0.0199834 0.0199818 0.0199802 0.0199784 0.0199764 0.0199744 0.0199723 0.01997 0.0199677 0.0199652 0.0199625 0.0199598 0.0199569 0.0199539 0.0199508 0.0199476 0.0199442 0.0199407 0.0199371 0.0199334 0.0199296 0.0199257 0.0199217 0.0199176 0.0199134 0.0199092 0.0199049 0.0199005 0.0198961 0.0198916 0.0198871 0.0198825 0.019878 0.0198734 0.0198688 0.0198643 0.0198598 0.0198553 0.0198509 0.0198466 0.0198423 0.0198382 0.0198342 0.0198303 0.0198266 0.019823 0.0198196 0.0198165 0.0198135 0.0198108 0.0198083 0.0198061 0.0198042 0.0198026 0.0198014 0.0198005 0.0197999 0.0197997 0.0197999 0.0198005 0.0198016 0.019803 0.019805 0.0198074 0.0198103 0.0198136 0.0198175 0.0198219 0.0198269 0.0198323 0.0198383 0.0198449 0.019852 0.0198597 0.0198679 0.0198767 0.019886 0.0198959 0.0199063 0.0199173 0.0199287 0.0199407 0.0199532 0.0199662 0.0199796 0.0199935 0.0200077 0.0200224 0.0200374 0.0200528 0.0200684 0.0200843 0.0201004 0.0201167 0.0201331 0.0201497 0.0201662 0.0201828 0.0201993 0.0202158 0.0202321 0.0202482 0.0202641 0.0202797 0.0202949 0.0203097 0.0203241 0.0203381 0.0203514 0.0203642 0.0203764 0.0203879 0.0203987 0.0204087 0.020418 0.0204264 0.020434 0.0204407 0.0204465 0.0204513 0.0204552 0.0204582 0.0204602 0.0204612 0.0204612 0.0204601 0.0204581 0.0204551 0.0204511 0.0204461 0.0204401 0.0204332 0.0204253 0.0204164 0.0204067 0.020396 0.0203845 0.0203721 0.0203589 0.0203449 0.0203302 0.0203147 0.0202985 0.0202816 0.0202641 0.020246 0.0202274 0.0202082 0.0201885 0.0201684 0.0201478 0.0201269 0.0201056 0.0200841 0.0200623 0.0200402 0.0200179 0.0199955 0.019973 0.0199503 0.0199276 0.0199048 0.019882 0.0198592 0.0198364 0.0198136 0.0197909 0.0197681 0.0197453 0.0197223 0.0196992 0.0196757 0.0196519 0.0196275 0.0196024 0.0195765 0.0195496 0.0195215 0.0194922 0.0194615 0.0194291 0.019395 0.0193589 0.0193206 0.01928 0.0192367 0.0191906 0.0191413 0.0190887 0.0190324 0.0189722 0.0189079 0.0188393 0.0187664 0.0186892 0.0186077 0.018522 0.0184323 0.0183389 0.018242 0.0181419 0.0180389 0.0179332 0.0178251 0.0177144 0.0176012 0.0174848 0.0173647 0.0172402 0.0171108 0.0169764 0.016836 0.0166895 0.0165502 0.0164353 0.016336 0.0161964 0.0159549 0.0156092 0.0151751 0.0146333 0.0139907 0.0132561 0.0124549 0.0115087 0.0103134 0.00890166 0.00729645 0.00548055 0.00355763 0.00137025 -0.00103684 -0.0039459 -0.00775604 -0.011594 0 0 0 0 0 0 0 0 0 0 0 0 0 0 0 0 0 0 0 0 0 0 0 0 0 0 0 0 0 0 0 0 0 0 0 0 0 0 0 0 0 0 0 0 0 0 0 0 0 0 0 0 0 0 0 0 0 0 0 0 0 0 0 0 0 0 0 0 0 0 0 0 0 0 0 0 0 0 0 0 0 0 0 0 0 0 0 0 0 0 0 0 0 0 0 0 0 0 0 0 0 0 0 0 0 0 0 0 0 0 0 0 0 0 0 0 0 0 0 0 0 0 0 0 0 0 0 0 0 0 0 0 0 0 0 0 0 0 0 0 0 0 0 0 0 0 0 0 0 0 0 0 0 0 0 0 0 0 0 0 0 0 0 0 0 0 0 0 0 0 0 0 0 0 0 0 0 0 0 0 0 0 0 0 -0.00455839 -6.50521e-19 
0.02 0.02 0.02 0.02 0.02 0.02 0.02 0.02 0.02 0.02 0.02 0.02 0.02 0.02 0.02 0.02 0.02 0.02 0.02 0.02 0.02 0.02 0.02 0.02 0.02 0.02 0.02 0.02 0.02 0.02 0.02 0.02 0.02 0.02 0.02 0.02 0.02 0.02 0.02 0.02 0.02 0.02 0.02 0.02 0.02 0.02 0.02 0.02 0.02 0.02 0.02 0.02 0.02 0.02 0.02 0.02 0.02 0.02 0.02 0.02 0.02 0.02 0.02 0.02 0.02 0.02 0.02 0.02 0.02 0.02 0.02 0.02 0.02 0.02 0.02 0.02 0.02 0.02 0.02 0.02 0.02 0.02 0.02 0.02 0.02 0.02 0.02 0.02 0.02 0.02 0.02 0.02 0.02 0.02 0.02 0.02 0.02 0.02 0.02 0.02 0.02 0.02 0.02 0.02 0.02 0.02 0.02 0.02 0.02 0.02 0.02 0.02 0.02 0.02 0.02 0.02 0.02 0.02 0.02 0.02 0.02 0.02 0.02 0.02 0.02 0.0200001 0.0200001 0.0200001 0.0200001 0.0200001 0.0200001 0.0200001 0.0200001 0.0200001 0.0200001 0.0200001 0.0200001 0.0200001 0.0200002 0.0200002 0.0200002 0.0200002 0.0200002 0.0200002 0.0200002 0.0200002 0.0200003 0.0200003 0.0200003 0.0200003 0.0200003 0.0200003 0.0200003 0.0200004 0.0200004 0.0200004 0.0200004 0.0200004 0.0200004 0.0200004 0.0200004 0.0200004 0.0200004 0.0200004 0.0200004 0.0200004 0.0200004 0.0200004 0.0200003 0.0200003 0.0200002 0.0200002 0.0200001 0.02 0.0199999 0.0199998 0.0199996 0.0199994 0.0199993 0.019999 0.0199988 0.0199985 0.0199982 0.0199979 0.0199975 0.0199971 0.0199966 0.0199961 0.0199955 0.0199949 0.0199942 0.0199935 0.0199927 0.0199918 0.0199909 0.0199898 0.0199887 0.0199875 0.0199862 0.0199849 0.0199834 0.0199818 0.0199802 0.0199784 0.0199765 0.0199745 0.0199724 0.0199701 0.0199678 0.0199653 0.0199627 0.01996 0.0199571 0.0199542 0.0199511 0.0199479 0.0199446 0.0199411 0.0199376 0.0199339 0.0199302 0.0199263 0.0199223 0.0199183 0.0199142 0.0199099 0.0199057 0.0199013 0.0198969 0.0198925 0.019888 0.0198835 0.019879 0.0198745 0.01987 0.0198655 0.019861 0.0198566 0.0198522 0.0198479 0.0198437 0.0198396 0.0198356 0.0198318 0.019828 0.0198245 0.0198211 0.0198179 0.019815 0.0198123 0.0198098 0.0198076 0.0198056 0.019804 0.0198027 0.0198017 0.0198011 0.0198008 0.019801 0.0198015 0.0198024 0.0198038 0.0198056 0.0198079 0.0198106 0.0198139 0.0198176 0.0198218 0.0198266 0.0198318 0.0198376 0.019844 0.0198508 0.0198582 0.0198662 0.0198747 0.0198837 0.0198933 0.0199033 0.0199139 0.0199251 0.0199367 0.0199487 0.0199613 0.0199743 0.0199877 0.0200015 0.0200156 0.0200302 0.020045 0.0200601 0.0200754 0.0200909 0.0201066 0.0201225 0.0201384 0.0201543 0.0201703 0.0201862 0.0202019 0.0202176 0.020233 0.0202482 0.0202631 0.0202776 0.0202918 0.0203055 0.0203187 0.0203314 0.0203435 0.020355 0.0203658 0.0203759 0.0203853 0.020394 0.0204018 0.0204088 0.0204149 0.0204202 0.0204245 0.020428 0.0204305 0.0204321 0.0204327 0.0204323 0.020431 0.0204288 0.0204256 0.0204214 0.0204163 0.0204103 0.0204033 0.0203954 0.0203867 0.0203771 0.0203666 0.0203554 0.0203433 0.0203305 0.0203169 0.0203026 0.0202876 0.0202719 0.0202557 0.0202388 0.0202214 0.0202035 0.020185 0.0201662 0.0201468 0.0201271 0.0201071 0.0200867 0.020066 0.0200451 0.020024 0.0200027 0.0199812 0.0199596 0.0199378 0.019916 0.0198942 0.0198723 0.0198504 0.0198284 0.0198065 0.0197846 0.0197627 0.0197406 0.0197185 0.0196961 0.0196734 0.0196503 0.0196267 0.0196023 0.0195772 0.019551 0.0195238 0.0194953 0.0194653 0.0194338 0.0194005 0.0193652 0.0193279 0.0192882 0.0192459 0.0192008 0.0191525 0.019101 0.0190457 0.0189866 0.0189233 0.0188558 0.0187838 0.0187073 0.0186265 0.0185412 0.0184516 0.018358 0.0182605 0.0181592 0.0180545 0.0179463 0.0178349 0.0177201 0.0176018 0.0174794 0.0173522 0.0172199 0.0170827 0.0169423 0.0168009 0.0166587 0.016517 0.0163811 0.0162344 0.0160535 0.015796 0.015452 0.0150211 0.0144955 0.0138737 0.0131589 0.0123371 0.0113672 0.0101853 0.00880123 0.00723383 0.00545842 0.00342625 0.00120267 -0.00124315 -0.00396793 -0.00677116 -0.0113365 -0.0164603 -0.0227438 0 0 0 0 0 0 0 0 0 0 0 0 0 0 0 0 0 0 0 0 0 0 0 0 0 0 0 0 0 0 0 0 0 0 0 0 0 0 0 0 0 0 0 0 0 0 0 0 0 0 0 0 0 0 0 0 0 0 0 0 0 0 0 0 0 0 0 0 0 0 0 0 0 0 0 0 0 0 0 0 0 0 0 0 0 0 0 0 0 0 0 0 0 0 0 0 0 0 0 0 0 0 0 0 0 0 0 0 0 0 0 0 0 0 0 0 0 0 0 0 0 0 0 0 0 0 0 0 0 0 0 0 0 0 0 0 0 0 0 0 0 0 0 0 0 0 0 0 0 0 0 0 0 0 0 0 0 0 0 0 0 0 0 0 0 0 0 0 0 0 0 0 0 0 0 0 0 0 0 0 0 -0.0166456 -0.00839856 -2.60209e-18 
0.02 0.02 0.02 0.02 0.02 0.02 0.02 0.02 0.02 0.02 0.02 0.02 0.02 0.02 0.02 0.02 0.02 0.02 0.02 0.02 0.02 0.02 0.02 0.02 0.02 0.02 0.02 0.02 0.02 0.02 0.02 0.02 0.02 0.02 0.02 0.02 0.02 0.02 0.02 0.02 0.02 0.02 0.02 0.02 0.02 0.02 0.02 0.02 0.02 0.02 0.02 0.02 0.02 0.02 0.02 0.02 0.02 0.02 0.02 0.02 0.02 0.02 0.02 0.02 0.02 0.02 0.02 0.02 0.02 0.02 0.02 0.02 0.02 0.02 0.02 0.02 0.02 0.02 0.02 0.02 0.02 0.02 0.02 0.02 0.02 0.02 0.02 0.02 0.02 0.02 0.02 0.02 0.02 0.02 0.02 0.02 0.02 0.02 0.02 0.02 0.02 0.02 0.02 0.02 0.02 0.02 0.02 0.02 0.02 0.02 0.02 0.02 0.02 0.02 0.02 0.02 0.02 0.02 0.02 0.02 0.02 0.02 0.02 0.02 0.02 0.0200001 0.0200001 0.0200001 0.0200001 0.0200001 0.0200001 0.0200001 0.0200001 0.0200001 0.0200001 0.0200001 0.0200001 0.0200001 0.0200001 0.0200002 0.0200002 0.0200002 0.0200002 0.0200002 0.0200002 0.0200002 0.0200002 0.0200002 0.0200003 0.0200003 0.0200003 0.0200003 0.0200003 0.0200003 0.0200003 0.0200004 0.0200004 0.0200004 0.0200004 0.0200004 0.0200004 0.0200004 0.0200004 0.0200004 0.0200004 0.0200003 0.0200003 0.0200003 0.0200003 0.0200002 0.0200001 0.0200001 0.02 0.0199999 0.0199998 0.0199997 0.0199995 0.0199993 0.0199992 0.0199989 0.0199987 0.0199984 0.0199981 0.0199978 0.0199974 0.019997 0.0199965 0.019996 0.0199954 0.0199948 0.0199941 0.0199934 0.0199926 0.0199917 0.0199908 0.0199897 0.0199886 0.0199875 0.0199862 0.0199848 0.0199834 0.0199818 0.0199802 0.0199784 0.0199765 0.0199746 0.0199725 0.0199703 0.0199679 0.0199655 0.0199629 0.0199603 0.0199575 0.0199545 0.0199515 0.0199483 0.019945 0.0199417 0.0199382 0.0199345 0.0199308 0.019927 0.0199231 0.0199191 0.019915 0.0199109 0.0199067 0.0199024 0.019898 0.0198937 0.0198892 0.0198848 0.0198803 0.0198759 0.0198714 0.019867 0.0198626 0.0198582 0.0198539 0.0198496 0.0198454 0.0198414 0.0198374 0.0198336 0.0198299 0.0198263 0.019823 0.0198198 0.0198168 0.0198141 0.0198116 0.0198094 0.0198074 0.0198057 0.0198044 0.0198033 0.0198026 0.0198023 0.0198023 0.0198028 0.0198036 0.0198048 0.0198065 0.0198086 0.0198112 0.0198143 0.0198178 0.0198218 0.0198263 0.0198314 0.0198369 0.019843 0.0198495 0.0198566 0.0198643 0.0198724 0.0198811 0.0198903 0.0199 0.0199102 0.0199208 0.019932 0.0199436 0.0199556 0.0199681 0.019981 0.0199942 0.0200078 0.0200217 0.020036 0.0200504 0.0200651 0.02008 0.020095 0.0201101 0.0201253 0.0201405 0.0201557 0.0201708 0.0201858 0.0202007 0.0202153 0.0202297 0.0202438 0.0202575 0.0202709 0.0202838 0.0202962 0.0203081 0.0203194 0.0203301 0.0203401 0.0203495 0.0203582 0.0203661 0.0203732 0.0203795 0.020385 0.0203896 0.0203934 0.0203963 0.0203983 0.0203994 0.0203996 0.0203989 0.0203973 0.0203948 0.0203913 0.020387 0.0203818 0.0203757 0.0203688 0.020361 0.0203524 0.0203429 0.0203327 0.0203218 0.0203101 0.0202977 0.0202846 0.0202708 0.0202564 0.0202414 0.0202259 0.0202098 0.0201932 0.0201761 0.0201585 0.0201405 0.0201222 0.0201035 0.0200844 0.0200651 0.0200455 0.0200256 0.0200056 0.0199853 0.0199649 0.0199444 0.0199237 0.019903 0.0198822 0.0198614 0.0198405 0.0198196 0.0197987 0.0197777 0.0197567 0.0197357 0.0197144 0.0196929 0.0196711 0.0196489 0.0196261 0.0196027 0.0195784 0.0195531 0.0195268 0.0194992 0.0194702 0.0194397 0.0194074 0.0193733 0.019337 0.0192985 0.0192574 0.0192136 0.0191667 0.0191165 0.0190626 0.0190049 0.018943 0.0188769 0.0188062 0.018731 0.0186511 0.0185666 0.0184776 0.018384 0.018286 0.0181838 0.0180773 0.0179666 0.0178518 0.0177326 0.0176088 0.0174798 0.017345 0.0172043 0.0170585 0.0169105 0.016764 0.0166205 0.0164754 0.016321 0.0161475 0.0159287 0.0156478 0.0152932 0.0148598 0.0143435 0.0137372 0.0130285 0.0122029 0.0112181 0.0100474 0.00868003 0.00711716 0.00534878 0.00332922 0.001083 -0.00140927 -0.0042391 -0.00736113 -0.0112342 -0.0158801 -0.0224405 -0.0316832 0 0 0 0 0 0 0 0 0 0 0 0 0 0 0 0 0 0 0 0 0 0 0 0 0 0 0 0 0 0 0 0 0 0 0 0 0 0 0 0 0 0 0 0 0 0 0 0 0 0 0 0 0 0 0 0 0 0 0 0 0 0 0 0 0 0 0 0 0 0 0 0 0 0 0 0 0 0 0 0 0 0 0 0 0 0 0 0 0 0 0 0 0 0 0 0 0 0 0 0 0 0 0 0 0 0 0 0 0 0 0 0 0 0 0 0 0 0 0 0 0 0 0 0 0 0 0 0 0 0 0 0 0 0 0 0 0 0 0 0 0 0 0 0 0 0 0 0 0 0 0 0 0 0 0 0 0 0 0 0 0 0 0 0 0 0 0 0 0 0 0 0 0 0 0 0 0 0 0 -0.0301022 -0.0216469 -0.0118294 8.67362e-19 