# vtk DataFile Version 2.0
iteration 2538
ASCII

DATASET STRUCTURED_POINTS
DIMENSIONS 621 64 1
ORIGIN 0 0 0
SPACING 0.00161031 0.00161031 0.00161031

POINT_DATA 39744
SCALARS P float 1
LOOKUP_TABLE default
0 0 0 0 0 0 0 0 0 0 0 0 0 0 0 0 0 0 0 0 0 0 0 0 0 0 0 0 0 0 0 0 0 0 0 0 0 0 0 0 0 0 0 0 0 0 0 0 0 0 0 0 0 0 0 0 0 0 0 0 0 0 0 0 0 0 0 0 0 0 0 0 0 0 0 0 0 0 0 0 0 0 0 0 0 0 0 0 0 0 0 0 0 0 0 0 0 0 0 0 0 0 0 0 0 0 0 0 0 0 0 0 0 0 0 0 0 0 0 0 0 0 0 0 0 0 0 0 0 0 0 0 0 0 0 0 0 0 0 0 0 0 0 0 0 0 0 0 0 0 0 0 0 0 0 0 0 0 0 0 0 0 0 0 0 0 0 0 0 0 0 0 0 0 0 0 0 0 0 0 0 0 0 0 0 0 0 0 0 0 0 0 0 0 0 0 0 0 0 0 0 0 0 0 0 0 0 0 0 0 0 0 0 0 0 0 0 0 0 0 0 0 0 0 0 0 0 0 0 0 0 0 0 0 0 0 0 0 0 0 0 0 0 0 0 0 0 0 0 0 0 0 0 0 0 0 0 0 0 0 0 0 0 0 0 0 0 0 0 0 0 0 0 0 0 0 0 0 0 0 0 0 0 0 0 0 0 0 0 0 0 0 0 0 0 0 0 0 0 0 0 0 0 0 0 0 0 0 0 0 0 0 0 0 0 0 0 0 0 0 0 0 0 0 0 0 0 0 0 0 0 0 0 0 0 0 0 0 0 0 0 0 0 0 0 0 0 0 0 0 0 0 0 0 0 0 0 0 0 0 0 0 0 0 0 0 0 0 0 0 0 0 0 0 0 0 0 0 0 0 0 0 0 0 0 0 0 0 0 0 0 0 0 0 0 0 0 0 0 0 0 0 0 0 0 0 0 0 0 0 0 0 0 0 0 0 0 0 0 0 0 0 0 0 0 0 0 0 0 0 0 0 0 0 0 0 0 0 0 0 0 0 0 0 0 0 0 0 0 0 0 0 0 0 0 0 0 0 0 0 0 0 0 0 0 0 0 0 0 0 0 0 0 0 0 0 0 0 0 0 0 0 0 0 0 0 0 0 0 0 0 0 0 0 0 0 0 0 0 0 0 0 0 0 0 0 0 0 0 0 0 0 0 0 0 0 0 0 0 0 0 0 0 0 0 0 0 0 0 0 0 0 0 0 0 0 0 0 0 0 0 0 0 0 0 0 0 0 0 0 0 0 0 0 0 0 0 0 0 0 0 0 0 0 0 0 0 0 0 0 0 0 0 0 0 0 0 0 0 0 0 0 0 0 0 0 0 0 0 0 0 0 0 0 0 0 0 0 0 0 0 0 0 0 0 0 0 0 0 0 0 0 0 0 0 0 0 0 0 0 0 
0.0184909 0.0186071 0.0185781 0.0186155 0.0186555 0.0186976 0.0187414 0.0187864 0.0188325 0.0188796 0.0189277 0.0189766 0.0190264 0.019077 0.0191284 0.0191805 0.0192333 0.0192866 0.0193406 0.019395 0.0194499 0.0195052 0.0195608 0.0196166 0.0196727 0.0197288 0.0197848 0.0198401 0.0198937 0.0199424 0.0199832 0.0200157 0.0200568 0.020102 0.020149 0.0201969 0.0202454 0.0202942 0.0203432 0.0203921 0.0204408 0.0204893 0.0205375 0.0205853 0.0206326 0.0206794 0.0207256 0.0207711 0.020816 0.0208601 0.0209034 0.0209459 0.0209875 0.0210283 0.0210682 0.0211071 0.021145 0.021182 0.0212179 0.0212527 0.0212865 0.0213193 0.0213509 0.0213813 0.0214106 0.0214388 0.0214658 0.0214915 0.0215161 0.0215394 0.0215615 0.0215824 0.021602 0.0216203 0.0216373 0.0216531 0.0216675 0.0216807 0.0216925 0.0217031 0.0217124 0.0217203 0.021727 0.0217324 0.0217365 0.0217393 0.0217408 0.021741 0.02174 0.0217378 0.0217343 0.0217296 0.0217236 0.0217165 0.0217082 0.0216988 0.0216882 0.0216765 0.0216637 0.0216499 0.021635 0.0216191 0.0216022 0.0215844 0.0215656 0.021546 0.0215255 0.0215041 0.021482 0.0214591 0.0214355 0.0214112 0.0213863 0.0213608 0.0213347 0.0213081 0.021281 0.0212535 0.0212256 0.0211974 0.0211688 0.02114 0.0211109 0.0210817 0.0210524 0.0210229 0.0209934 0.0209639 0.0209345 0.0209051 0.0208758 0.0208467 0.0208178 0.0207892 0.0207608 0.0207327 0.020705 0.0206776 0.0206506 0.0206241 0.020598 0.0205724 0.0205474 0.0205228 0.0204988 0.0204754 0.0204526 0.0204304 0.0204089 0.0203879 0.0203676 0.020348 0.020329 0.0203106 0.020293 0.020276 0.0202596 0.0202439 0.0202289 0.0202145 0.0202008 0.0201877 0.0201752 0.0201633 0.020152 0.0201413 0.0201312 0.0201216 0.0201126 0.0201041 0.020096 0.0200885 0.0200815 0.0200748 0.0200687 0.0200629 0.0200575 0.0200526 0.0200479 0.0200436 0.0200396 0.020036 0.0200326 0.0200295 0.0200266 0.020024 0.0200216 0.0200194 0.0200174 0.0200156 0.0200139 0.0200124 0.020011 0.0200098 0.0200087 0.0200077 0.0200068 0.020006 0.0200053 0.0200046 0.0200041 0.0200036 0.0200031 0.0200027 0.0200024 0.020002 0.0200018 0.0200015 0.0200013 0.0200011 0.020001 0.0200008 0.0200007 0.0200006 0.0200005 0.0200004 0.0200004 0.0200003 0.0200003 0.0200002 0.0200002 0.0200002 0.0200001 0.0200001 0.0200001 0.0200001 0.0200001 0.02 0.02 0.02 0.02 0.02 0.02 0.02 0.02 0.02 0.02 0.02 0.02 0.02 0.02 0.02 0.02 0.02 0.02 0.02 0.02 0.02 0.02 0.02 0.02 0.0200001 0.0200001 0.0200001 0.0200001 0.0200001 0.0200001 0.0200001 0.0200001 0.0200001 0.0200002 0.0200002 0.0200002 0.0200002 0.0200002 0.0200003 0.0200003 0.0200003 0.0200003 0.0200004 0.0200004 0.0200004 0.0200004 0.0200005 0.0200005 0.0200005 0.0200006 0.0200006 0.0200007 0.0200007 0.0200007 0.0200008 0.0200008 0.0200009 0.0200009 0.0200009 0.020001 0.020001 0.0200011 0.0200011 0.0200012 0.0200012 0.0200012 0.0200013 0.0200013 0.0200013 0.0200013 0.0200013 0.0200013 0.0200013 0.0200013 0.0200013 0.0200013 0.0200013 0.0200012 0.0200011 0.0200011 0.020001 0.0200009 0.0200008 0.0200006 0.0200005 0.0200003 0.0200001 0.0199999 0.0199996 0.0199993 0.019999 0.0199987 0.0199983 0.0199979 0.0199974 0.0199969 0.0199964 0.0199958 0.0199952 0.0199945 0.0199938 0.0199931 0.0199922 0.0199914 0.0199904 0.0199894 0.0199884 0.0199872 0.019986 0.0199848 0.0199834 0.019982 0.0199805 0.0199789 0.0199772 0.0199755 0.0199736 0.0199717 0.0199697 0.0199676 0.0199653 0.019963 0.0199606 0.0199581 0.0199554 0.0199527 0.0199498 0.0199469 0.0199438 0.0199406 0.0199373 0.0199338 0.0199303 0.0199266 0.0199228 0.0199188 0.0199147 0.0199105 0.0199062 0.0199017 0.0198971 0.0198924 0.0198875 0.0198825 0.0198774 0.0198721 0.0198667 0.0198612 0.0198555 0.0198497 0.0198438 0.0198377 0.0198315 0.0198251 0.0198187 0.0198121 0.0198053 0.0197985 0.0197915 0.0197844 0.0197772 0.0197699 0.0197625 0.0197549 0.0197473 0.0197395 0.0197317 0.0197237 0.0197157 0.0197076 0.0196994 0.0196911 0.0196827 0.0196743 0.0196659 0.0196573 0.0196487 0.0196401 0.0196314 0.0196227 0.019614 0.0196053 0.0195965 0.0195877 0.019579 0.0195702 0.0195614 0.0195527 0.019544 0.0195353 0.0195267 0.0195181 0.0195096 0.0195012 0.0194928 0.0194845 0.0194763 0.0194681 0.0194601 0.0194522 0.0194444 0.0194367 0.0194292 0.0194217 0.0194145 0.0194073 0.0194004 0.0193936 0.0193869 0.0193805 0.0193742 0.0193681 0.0193622 0.0193564 0.0193509 0.0193456 0.0193405 0.0193356 0.0193309 0.0193265 0.0193222 0.0193182 0.0193144 0.0193108 0.0193074 0.0193043 0.0193014 0.0192987 0.0192963 0.0192941 0.0192921 0.0192903 0.0192887 0.0192874 0.0192863 0.0192854 0.0192847 0.0192842 0.0192839 0.0192837 0.0192838 0.0192841 0.0192845 0.0192851 0.0192859 0.0192869 0.019288 0.0192892 0.0192906 0.0192921 0.0192938 0.0192956 0.0192975 0.0192995 0.0193016 0.0193038 0.0193061 0.0193085 0.019311 0.0193135 0.0193162 0.0193189 0.0193217 0.0193246 0.0193275 0.0193304 0.0193335 0.0193366 0.0193397 0.019343 0.0193462 0.0193496 0.0193529 0.0193564 0.0193599 0.0193635 0.0193671 0.0193709 0.0193747 0.0193787 0.0193828 0.019387 0.0193913 0.0193959 0.0194006 0.0194055 0.0194106 0.019416 0.0194216 0.0194275 0.0194337 0.0194402 0.0194471 0.0194543 0.019462 0.0194701 0.0194787 0.0194877 0.0194973 0.0195074 0.0195181 0.0195293 0.0195411 0.0195536 0.0195666 0.0195803 0.0195945 0.0196094 0.0196248 0.0196408 0.0196572 0.0196742 0.0196915 0.0197092 0.0197272 0.0197454 0.0197636 0.0197819 0.0198001 0.019818 0.0198355 0.0198525 0.0198688 0.0198842 0.0198987 0.0199119 0.0199238 0.0199342 0.0199428 0.0199495 0.0199542 0.0199566 0.0199566 0.019954 0.0199487 0.0199405 0.0199292 0.0199149 0.0198973 0.0198763 0.0198519 0.019824 0.0197926 0.0197575 0.0197188 0.0196765 0.0196304 0.0195806 0.0195269 0.0194692 0.0194073 0.0193408 0.0192693 0.0191924 0.0191096 0.0190206 0.0189252 0.0188233 0.0187153 0.0186019 0.0184839 0.0183625 0.0182387 0.0181133 0.0179872 0.0178605 0.0177337 0.0176043 0.0174572 0.0173044 0.0171434 0.0169756 0.016805 0.0166356 0.0164731 0.0163222 0.0162103 0.0163729 0.018627 0 0 0 0 0 0 0 0 0 0 0 0 0 0 0 
0.0184909 0.0185588 0.0185805 0.0186168 0.0186564 0.0186983 0.0187419 0.0187868 0.0188328 0.0188799 0.0189279 0.0189768 0.0190266 0.0190772 0.0191285 0.0191806 0.0192333 0.0192867 0.0193406 0.019395 0.0194498 0.0195051 0.0195607 0.0196165 0.0196724 0.0197283 0.0197837 0.019838 0.0198897 0.0199372 0.0199798 0.0200203 0.0200631 0.0201084 0.0201553 0.0202031 0.0202515 0.0203003 0.0203491 0.0203979 0.0204465 0.020495 0.0205431 0.0205907 0.020638 0.0206846 0.0207307 0.0207761 0.0208208 0.0208648 0.020908 0.0209504 0.020992 0.0210326 0.0210723 0.0211111 0.0211489 0.0211858 0.0212216 0.0212563 0.02129 0.0213226 0.021354 0.0213844 0.0214136 0.0214416 0.0214685 0.0214941 0.0215185 0.0215418 0.0215637 0.0215844 0.0216039 0.0216221 0.021639 0.0216546 0.0216689 0.021682 0.0216937 0.0217042 0.0217133 0.0217211 0.0217277 0.0217329 0.0217369 0.0217396 0.021741 0.0217411 0.02174 0.0217376 0.021734 0.0217291 0.0217231 0.0217158 0.0217074 0.0216979 0.0216872 0.0216754 0.0216625 0.0216485 0.0216335 0.0216175 0.0216005 0.0215826 0.0215637 0.021544 0.0215234 0.0215019 0.0214797 0.0214567 0.021433 0.0214087 0.0213837 0.0213581 0.0213319 0.0213053 0.0212781 0.0212506 0.0212226 0.0211943 0.0211657 0.0211368 0.0211077 0.0210785 0.0210491 0.0210196 0.0209901 0.0209606 0.0209312 0.0209018 0.0208725 0.0208434 0.0208146 0.0207859 0.0207575 0.0207295 0.0207018 0.0206744 0.0206475 0.020621 0.020595 0.0205694 0.0205444 0.0205199 0.020496 0.0204727 0.02045 0.0204278 0.0204063 0.0203854 0.0203652 0.0203456 0.0203267 0.0203085 0.0202909 0.0202739 0.0202577 0.0202421 0.0202271 0.0202128 0.0201992 0.0201861 0.0201737 0.0201619 0.0201507 0.0201401 0.02013 0.0201205 0.0201115 0.0201031 0.0200951 0.0200876 0.0200806 0.0200741 0.020068 0.0200623 0.0200569 0.020052 0.0200474 0.0200431 0.0200392 0.0200356 0.0200322 0.0200291 0.0200263 0.0200237 0.0200213 0.0200191 0.0200172 0.0200154 0.0200137 0.0200122 0.0200109 0.0200097 0.0200086 0.0200076 0.0200067 0.0200059 0.0200052 0.0200046 0.020004 0.0200035 0.0200031 0.0200027 0.0200023 0.020002 0.0200017 0.0200015 0.0200013 0.0200011 0.020001 0.0200008 0.0200007 0.0200006 0.0200005 0.0200004 0.0200004 0.0200003 0.0200003 0.0200002 0.0200002 0.0200001 0.0200001 0.0200001 0.0200001 0.0200001 0.0200001 0.02 0.02 0.02 0.02 0.02 0.02 0.02 0.02 0.02 0.02 0.02 0.02 0.02 0.02 0.02 0.02 0.02 0.02 0.02 0.02 0.02 0.02 0.02 0.02 0.0200001 0.0200001 0.0200001 0.0200001 0.0200001 0.0200001 0.0200001 0.0200001 0.0200001 0.0200002 0.0200002 0.0200002 0.0200002 0.0200002 0.0200003 0.0200003 0.0200003 0.0200003 0.0200004 0.0200004 0.0200004 0.0200004 0.0200005 0.0200005 0.0200005 0.0200006 0.0200006 0.0200007 0.0200007 0.0200007 0.0200008 0.0200008 0.0200009 0.0200009 0.020001 0.020001 0.020001 0.0200011 0.0200011 0.0200012 0.0200012 0.0200012 0.0200013 0.0200013 0.0200013 0.0200013 0.0200013 0.0200014 0.0200014 0.0200013 0.0200013 0.0200013 0.0200013 0.0200012 0.0200012 0.0200011 0.020001 0.0200009 0.0200008 0.0200007 0.0200005 0.0200003 0.0200001 0.0199999 0.0199996 0.0199994 0.019999 0.0199987 0.0199983 0.0199979 0.0199975 0.019997 0.0199965 0.0199959 0.0199953 0.0199946 0.0199939 0.0199931 0.0199923 0.0199915 0.0199905 0.0199895 0.0199885 0.0199873 0.0199861 0.0199849 0.0199835 0.0199821 0.0199806 0.019979 0.0199774 0.0199756 0.0199738 0.0199719 0.0199699 0.0199678 0.0199656 0.0199632 0.0199608 0.0199583 0.0199557 0.019953 0.0199501 0.0199472 0.0199441 0.0199409 0.0199376 0.0199342 0.0199306 0.019927 0.0199232 0.0199192 0.0199152 0.019911 0.0199067 0.0199022 0.0198977 0.0198929 0.0198881 0.0198831 0.019878 0.0198728 0.0198674 0.0198619 0.0198562 0.0198504 0.0198445 0.0198385 0.0198323 0.019826 0.0198196 0.019813 0.0198063 0.0197995 0.0197926 0.0197855 0.0197784 0.0197711 0.0197637 0.0197562 0.0197486 0.0197409 0.0197331 0.0197252 0.0197172 0.0197091 0.019701 0.0196927 0.0196844 0.0196761 0.0196676 0.0196592 0.0196506 0.0196421 0.0196334 0.0196248 0.0196161 0.0196074 0.0195987 0.01959 0.0195813 0.0195726 0.0195639 0.0195552 0.0195465 0.0195379 0.0195294 0.0195208 0.0195124 0.0195039 0.0194956 0.0194873 0.0194792 0.0194711 0.0194631 0.0194552 0.0194475 0.0194398 0.0194323 0.0194249 0.0194177 0.0194106 0.0194036 0.0193968 0.0193902 0.0193838 0.0193775 0.0193714 0.0193655 0.0193598 0.0193543 0.019349 0.0193439 0.019339 0.0193343 0.0193298 0.0193255 0.0193215 0.0193177 0.0193141 0.0193107 0.0193075 0.0193046 0.0193019 0.0192994 0.0192972 0.0192951 0.0192933 0.0192917 0.0192904 0.0192892 0.0192882 0.0192875 0.0192869 0.0192866 0.0192864 0.0192865 0.0192867 0.0192871 0.0192876 0.0192884 0.0192893 0.0192903 0.0192915 0.0192929 0.0192944 0.019296 0.0192977 0.0192996 0.0193016 0.0193037 0.0193059 0.0193082 0.0193106 0.019313 0.0193156 0.0193183 0.019321 0.0193238 0.0193267 0.0193297 0.0193327 0.0193358 0.0193389 0.0193421 0.0193454 0.0193487 0.0193521 0.0193555 0.019359 0.0193626 0.0193662 0.0193699 0.0193737 0.0193776 0.0193816 0.0193858 0.01939 0.0193944 0.019399 0.0194038 0.0194087 0.0194139 0.0194193 0.0194249 0.0194309 0.0194371 0.0194437 0.0194506 0.0194579 0.0194656 0.0194737 0.0194823 0.0194914 0.019501 0.0195111 0.0195218 0.0195331 0.0195449 0.0195573 0.0195704 0.019584 0.0195982 0.019613 0.0196284 0.0196444 0.0196608 0.0196777 0.019695 0.0197126 0.0197305 0.0197486 0.0197669 0.0197851 0.0198032 0.019821 0.0198385 0.0198554 0.0198717 0.0198871 0.0199015 0.0199147 0.0199266 0.019937 0.0199456 0.0199524 0.0199571 0.0199596 0.0199597 0.0199572 0.019952 0.019944 0.019933 0.0199189 0.0199016 0.0198809 0.0198568 0.0198293 0.0197982 0.0197636 0.0197253 0.0196834 0.0196378 0.0195884 0.0195351 0.0194778 0.0194163 0.0193501 0.0192789 0.0192023 0.0191198 0.0190309 0.0189354 0.0188332 0.0187247 0.0186103 0.0184909 0.0183674 0.0182407 0.0181116 0.0179807 0.0178485 0.0177148 0.0175795 0.0174387 0.0172841 0.017122 0.0169502 0.0167734 0.0165965 0.0164249 0.016265 0.0161421 0.0161702 0.01653 0.0163181 0.015853 0.0155092 0.0149471 0.0141634 0.0135154 0.0142973 0 0 0 0 0 0 0 0 
0.0184909 0.0185435 0.0185792 0.0186172 0.0186573 0.0186992 0.0187427 0.0187875 0.0188335 0.0188805 0.0189285 0.0189775 0.0190272 0.0190778 0.0191292 0.0191812 0.0192339 0.0192873 0.0193412 0.0193955 0.0194504 0.0195056 0.0195611 0.0196168 0.0196725 0.0197279 0.0197824 0.019835 0.019885 0.0199318 0.0199758 0.0200195 0.0200642 0.0201102 0.0201574 0.0202053 0.0202537 0.0203025 0.0203513 0.0204001 0.0204487 0.0204971 0.0205452 0.0205929 0.0206401 0.0206867 0.0207327 0.0207781 0.0208228 0.0208668 0.02091 0.0209523 0.0209938 0.0210344 0.0210741 0.0211129 0.0211506 0.0211874 0.0212232 0.0212579 0.0212915 0.0213241 0.0213555 0.0213858 0.021415 0.021443 0.0214698 0.0214954 0.0215197 0.0215429 0.0215648 0.0215855 0.0216049 0.0216231 0.0216399 0.0216555 0.0216698 0.0216828 0.0216945 0.0217049 0.021714 0.0217218 0.0217283 0.0217335 0.0217374 0.02174 0.0217413 0.0217414 0.0217403 0.0217378 0.0217342 0.0217293 0.0217232 0.0217159 0.0217074 0.0216978 0.0216871 0.0216752 0.0216623 0.0216483 0.0216333 0.0216172 0.0216002 0.0215822 0.0215633 0.0215435 0.0215228 0.0215013 0.0214791 0.0214561 0.0214323 0.0214079 0.0213829 0.0213573 0.0213311 0.0213044 0.0212772 0.0212496 0.0212216 0.0211933 0.0211646 0.0211357 0.0211066 0.0210774 0.021048 0.0210185 0.0209889 0.0209594 0.0209299 0.0209006 0.0208713 0.0208422 0.0208133 0.0207846 0.0207563 0.0207282 0.0207005 0.0206732 0.0206462 0.0206197 0.0205937 0.0205682 0.0205432 0.0205187 0.0204948 0.0204715 0.0204488 0.0204267 0.0204052 0.0203844 0.0203642 0.0203446 0.0203257 0.0203075 0.0202899 0.020273 0.0202568 0.0202412 0.0202263 0.020212 0.0201984 0.0201854 0.020173 0.0201612 0.02015 0.0201394 0.0201294 0.0201199 0.020111 0.0201026 0.0200946 0.0200872 0.0200802 0.0200737 0.0200676 0.0200619 0.0200566 0.0200517 0.0200471 0.0200429 0.020039 0.0200353 0.020032 0.0200289 0.0200261 0.0200235 0.0200212 0.020019 0.020017 0.0200152 0.0200136 0.0200121 0.0200108 0.0200096 0.0200085 0.0200075 0.0200067 0.0200059 0.0200052 0.0200045 0.020004 0.0200035 0.020003 0.0200026 0.0200023 0.020002 0.0200017 0.0200015 0.0200013 0.0200011 0.020001 0.0200008 0.0200007 0.0200006 0.0200005 0.0200004 0.0200004 0.0200003 0.0200003 0.0200002 0.0200002 0.0200001 0.0200001 0.0200001 0.0200001 0.0200001 0.0200001 0.02 0.02 0.02 0.02 0.02 0.02 0.02 0.02 0.02 0.02 0.02 0.02 0.02 0.02 0.02 0.02 0.02 0.02 0.02 0.02 0.02 0.02 0.02 0.02 0.0200001 0.0200001 0.0200001 0.0200001 0.0200001 0.0200001 0.0200001 0.0200001 0.0200001 0.0200002 0.0200002 0.0200002 0.0200002 0.0200002 0.0200003 0.0200003 0.0200003 0.0200003 0.0200004 0.0200004 0.0200004 0.0200005 0.0200005 0.0200005 0.0200006 0.0200006 0.0200006 0.0200007 0.0200007 0.0200008 0.0200008 0.0200008 0.0200009 0.0200009 0.020001 0.020001 0.0200011 0.0200011 0.0200011 0.0200012 0.0200012 0.0200012 0.0200013 0.0200013 0.0200013 0.0200014 0.0200014 0.0200014 0.0200014 0.0200014 0.0200014 0.0200013 0.0200013 0.0200013 0.0200012 0.0200011 0.020001 0.0200009 0.0200008 0.0200007 0.0200005 0.0200004 0.0200002 0.0199999 0.0199997 0.0199994 0.0199991 0.0199988 0.0199984 0.019998 0.0199975 0.0199971 0.0199965 0.019996 0.0199954 0.0199947 0.019994 0.0199932 0.0199924 0.0199915 0.0199906 0.0199896 0.0199886 0.0199875 0.0199863 0.019985 0.0199837 0.0199823 0.0199808 0.0199792 0.0199776 0.0199758 0.019974 0.0199721 0.0199701 0.019968 0.0199658 0.0199635 0.0199611 0.0199586 0.019956 0.0199533 0.0199504 0.0199475 0.0199444 0.0199413 0.019938 0.0199346 0.019931 0.0199274 0.0199236 0.0199197 0.0199157 0.0199115 0.0199072 0.0199028 0.0198982 0.0198936 0.0198887 0.0198838 0.0198787 0.0198735 0.0198682 0.0198627 0.0198571 0.0198513 0.0198455 0.0198395 0.0198333 0.0198271 0.0198207 0.0198142 0.0198075 0.0198008 0.0197939 0.0197869 0.0197798 0.0197726 0.0197653 0.0197578 0.0197503 0.0197426 0.0197349 0.0197271 0.0197192 0.0197112 0.0197031 0.019695 0.0196867 0.0196785 0.0196701 0.0196617 0.0196533 0.0196448 0.0196363 0.0196277 0.0196191 0.0196105 0.0196019 0.0195933 0.0195847 0.0195761 0.0195674 0.0195589 0.0195503 0.0195418 0.0195333 0.0195249 0.0195165 0.0195082 0.0194999 0.0194918 0.0194837 0.0194757 0.0194678 0.01946 0.0194523 0.0194447 0.0194373 0.01943 0.0194228 0.0194158 0.0194089 0.0194022 0.0193956 0.0193892 0.019383 0.019377 0.0193711 0.0193654 0.01936 0.0193547 0.0193496 0.0193447 0.0193401 0.0193356 0.0193313 0.0193273 0.0193235 0.0193199 0.0193165 0.0193134 0.0193104 0.0193077 0.0193052 0.0193029 0.0193008 0.019299 0.0192974 0.0192959 0.0192947 0.0192937 0.0192929 0.0192923 0.0192919 0.0192917 0.0192917 0.0192918 0.0192922 0.0192927 0.0192934 0.0192942 0.0192952 0.0192963 0.0192976 0.019299 0.0193006 0.0193023 0.0193041 0.019306 0.0193081 0.0193103 0.0193125 0.0193149 0.0193174 0.01932 0.0193226 0.0193253 0.0193282 0.0193311 0.0193341 0.0193371 0.0193402 0.0193434 0.0193467 0.01935 0.0193534 0.0193568 0.0193603 0.0193639 0.0193675 0.0193712 0.0193749 0.0193787 0.0193827 0.0193867 0.0193909 0.0193952 0.0193996 0.0194042 0.019409 0.019414 0.0194192 0.0194246 0.0194303 0.0194363 0.0194426 0.0194492 0.0194562 0.0194635 0.0194713 0.0194794 0.0194881 0.0194972 0.0195069 0.019517 0.0195277 0.019539 0.0195509 0.0195634 0.0195764 0.0195901 0.0196043 0.0196191 0.0196345 0.0196504 0.0196668 0.0196837 0.0197009 0.0197185 0.0197364 0.0197545 0.0197726 0.0197908 0.0198088 0.0198266 0.019844 0.0198608 0.019877 0.0198924 0.0199067 0.0199199 0.0199318 0.0199421 0.0199507 0.0199575 0.0199622 0.0199648 0.019965 0.0199626 0.0199576 0.0199498 0.019939 0.0199251 0.0199081 0.0198878 0.0198641 0.019837 0.0198065 0.0197723 0.0197347 0.0196934 0.0196484 0.0195997 0.0195472 0.0194906 0.0194298 0.0193643 0.0192939 0.0192179 0.0191358 0.0190473 0.0189519 0.0188494 0.0187402 0.0186245 0.018503 0.0183767 0.0182463 0.0181126 0.0179762 0.0178374 0.0176962 0.0175528 0.0174065 0.0172543 0.0170901 0.0169167 0.0167349 0.0165502 0.0163683 0.0161977 0.0160675 0.0160329 0.0160803 0.0159471 0.0156322 0.0152534 0.0147222 0.0140318 0.0133457 0.0127204 0.0114667 0.00985364 0.00819578 0.00644817 0.00470627 0.00307556 0.00158169 5.42101e-20 
0.0184909 0.0185377 0.0185777 0.0186174 0.018658 0.0187001 0.0187436 0.0187884 0.0188343 0.0188814 0.0189293 0.0189783 0.019028 0.0190786 0.0191299 0.019182 0.0192347 0.019288 0.0193419 0.0193963 0.0194511 0.0195062 0.0195617 0.0196172 0.0196724 0.019727 0.0197803 0.0198316 0.0198806 0.0199273 0.0199726 0.0200179 0.0200639 0.0201106 0.0201581 0.0202063 0.0202548 0.0203036 0.0203525 0.0204013 0.02045 0.0204984 0.0205464 0.0205941 0.0206413 0.0206879 0.020734 0.0207793 0.020824 0.020868 0.0209111 0.0209535 0.0209949 0.0210355 0.0210752 0.021114 0.0211517 0.0211885 0.0212242 0.0212589 0.0212925 0.0213251 0.0213565 0.0213868 0.0214159 0.0214438 0.0214706 0.0214962 0.0215206 0.0215437 0.0215656 0.0215863 0.0216057 0.0216238 0.0216406 0.0216562 0.0216704 0.0216834 0.0216951 0.0217055 0.0217145 0.0217223 0.0217288 0.0217339 0.0217378 0.0217404 0.0217418 0.0217418 0.0217406 0.0217382 0.0217345 0.0217296 0.0217234 0.0217161 0.0217077 0.021698 0.0216872 0.0216754 0.0216624 0.0216484 0.0216333 0.0216172 0.0216001 0.0215821 0.0215632 0.0215434 0.0215227 0.0215012 0.0214789 0.0214558 0.0214321 0.0214077 0.0213826 0.0213569 0.0213307 0.021304 0.0212768 0.0212492 0.0212211 0.0211928 0.0211641 0.0211352 0.0211061 0.0210768 0.0210474 0.0210179 0.0209883 0.0209588 0.0209293 0.0208999 0.0208706 0.0208415 0.0208126 0.0207839 0.0207555 0.0207275 0.0206997 0.0206724 0.0206455 0.020619 0.020593 0.0205675 0.0205425 0.020518 0.0204941 0.0204708 0.0204481 0.020426 0.0204045 0.0203837 0.0203635 0.0203439 0.0203251 0.0203069 0.0202893 0.0202724 0.0202562 0.0202406 0.0202257 0.0202115 0.0201979 0.0201849 0.0201725 0.0201608 0.0201496 0.020139 0.020129 0.0201195 0.0201106 0.0201022 0.0200943 0.0200869 0.0200799 0.0200734 0.0200673 0.0200617 0.0200564 0.0200515 0.0200469 0.0200427 0.0200388 0.0200352 0.0200318 0.0200288 0.020026 0.0200234 0.0200211 0.0200189 0.0200169 0.0200152 0.0200135 0.0200121 0.0200107 0.0200095 0.0200085 0.0200075 0.0200066 0.0200058 0.0200051 0.0200045 0.020004 0.0200035 0.020003 0.0200026 0.0200023 0.020002 0.0200017 0.0200015 0.0200013 0.0200011 0.0200009 0.0200008 0.0200007 0.0200006 0.0200005 0.0200004 0.0200004 0.0200003 0.0200003 0.0200002 0.0200002 0.0200001 0.0200001 0.0200001 0.0200001 0.0200001 0.0200001 0.02 0.02 0.02 0.02 0.02 0.02 0.02 0.02 0.02 0.02 0.02 0.02 0.02 0.02 0.02 0.02 0.02 0.02 0.02 0.02 0.02 0.02 0.02 0.0200001 0.0200001 0.0200001 0.0200001 0.0200001 0.0200001 0.0200001 0.0200001 0.0200001 0.0200002 0.0200002 0.0200002 0.0200002 0.0200002 0.0200002 0.0200003 0.0200003 0.0200003 0.0200003 0.0200004 0.0200004 0.0200004 0.0200005 0.0200005 0.0200005 0.0200006 0.0200006 0.0200006 0.0200007 0.0200007 0.0200008 0.0200008 0.0200009 0.0200009 0.0200009 0.020001 0.020001 0.0200011 0.0200011 0.0200012 0.0200012 0.0200012 0.0200013 0.0200013 0.0200013 0.0200014 0.0200014 0.0200014 0.0200014 0.0200014 0.0200014 0.0200014 0.0200014 0.0200013 0.0200013 0.0200012 0.0200012 0.0200011 0.020001 0.0200009 0.0200007 0.0200006 0.0200004 0.0200002 0.02 0.0199997 0.0199995 0.0199992 0.0199988 0.0199984 0.019998 0.0199976 0.0199971 0.0199966 0.019996 0.0199954 0.0199948 0.0199941 0.0199933 0.0199925 0.0199917 0.0199907 0.0199898 0.0199887 0.0199876 0.0199864 0.0199852 0.0199838 0.0199824 0.019981 0.0199794 0.0199778 0.019976 0.0199742 0.0199723 0.0199703 0.0199683 0.0199661 0.0199638 0.0199614 0.0199589 0.0199563 0.0199536 0.0199508 0.0199479 0.0199449 0.0199417 0.0199385 0.0199351 0.0199316 0.0199279 0.0199242 0.0199203 0.0199163 0.0199122 0.0199079 0.0199036 0.019899 0.0198944 0.0198896 0.0198847 0.0198797 0.0198745 0.0198692 0.0198638 0.0198583 0.0198526 0.0198468 0.0198408 0.0198348 0.0198286 0.0198223 0.0198158 0.0198093 0.0198026 0.0197958 0.0197889 0.0197818 0.0197747 0.0197675 0.0197601 0.0197527 0.0197452 0.0197375 0.0197298 0.019722 0.0197141 0.0197062 0.0196981 0.01969 0.0196819 0.0196737 0.0196654 0.0196571 0.0196487 0.0196403 0.0196319 0.0196234 0.0196149 0.0196065 0.019598 0.0195895 0.019581 0.0195725 0.0195641 0.0195557 0.0195473 0.0195389 0.0195306 0.0195224 0.0195142 0.0195061 0.0194981 0.0194901 0.0194822 0.0194745 0.0194668 0.0194592 0.0194518 0.0194444 0.0194372 0.0194302 0.0194232 0.0194164 0.0194098 0.0194033 0.019397 0.0193909 0.0193849 0.0193791 0.0193735 0.0193681 0.0193629 0.0193578 0.019353 0.0193483 0.0193439 0.0193397 0.0193357 0.0193318 0.0193282 0.0193249 0.0193217 0.0193187 0.019316 0.0193135 0.0193111 0.019309 0.0193071 0.0193055 0.019304 0.0193027 0.0193016 0.0193008 0.0193001 0.0192996 0.0192993 0.0192992 0.0192993 0.0192995 0.0192999 0.0193005 0.0193013 0.0193022 0.0193032 0.0193044 0.0193058 0.0193073 0.0193089 0.0193107 0.0193126 0.0193146 0.0193167 0.019319 0.0193213 0.0193238 0.0193264 0.019329 0.0193318 0.0193346 0.0193376 0.0193406 0.0193437 0.0193468 0.0193501 0.0193534 0.0193568 0.0193602 0.0193637 0.0193673 0.0193709 0.0193746 0.0193783 0.0193821 0.019386 0.01939 0.0193941 0.0193983 0.0194026 0.0194071 0.0194117 0.0194165 0.0194215 0.0194268 0.0194323 0.019438 0.0194441 0.0194504 0.0194571 0.0194641 0.0194715 0.0194794 0.0194876 0.0194963 0.0195055 0.0195152 0.0195254 0.0195362 0.0195475 0.0195595 0.019572 0.019585 0.0195987 0.019613 0.0196278 0.0196431 0.019659 0.0196754 0.0196922 0.0197094 0.019727 0.0197448 0.0197628 0.0197809 0.0197989 0.0198168 0.0198345 0.0198518 0.0198686 0.0198847 0.0198999 0.0199142 0.0199273 0.0199391 0.0199494 0.019958 0.0199647 0.0199695 0.0199721 0.0199724 0.0199701 0.0199653 0.0199577 0.0199472 0.0199337 0.019917 0.0198972 0.019874 0.0198475 0.0198175 0.0197841 0.0197472 0.0197068 0.0196627 0.019615 0.0195635 0.0195081 0.0194483 0.0193841 0.0193147 0.0192399 0.0191589 0.0190712 0.0189764 0.0188742 0.0187646 0.0186479 0.0185247 0.0183957 0.0182616 0.0181233 0.0179812 0.0178356 0.0176868 0.0175347 0.0173794 0.0172205 0.0170553 0.0168797 0.0166953 0.0165044 0.0163133 0.0161318 0.0159821 0.0158901 0.015829 0.0156867 0.0154128 0.0150271 0.0145071 0.0138617 0.0131411 0.0122927 0.0110963 0.00963198 0.00803865 0.00637132 0.00471916 0.00316645 0.00170099 1.6263e-19 