# vtk DataFile Version 2.0
iteration 432
ASCII

DATASET STRUCTURED_POINTS
DIMENSIONS 621 64 1
ORIGIN 0 0 0
SPACING 0.00161031 0.00161031 0.00161031

POINT_DATA 39744
SCALARS P float 1
LOOKUP_TABLE default
0 0 0 0 0 0 0 0 0 0 0 0 0 0 0 0 0 0 0 0 0 0 0 0 0 0 0 0 0 0 0 0 0 0 0 0 0 0 0 0 0 0 0 0 0 0 0 0 0 0 0 0 0 0 0 0 0 0 0 0 0 0 0 0 0 0 0 0 0 0 0 0 0 0 0 0 0 0 0 0 0 0 0 0 0 0 0 0 0 0 0 0 0 0 0 0 0 0 0 0 0 0 0 0 0 0 0 0 0 0 0 0 0 0 0 0 0 0 0 0 0 0 0 0 0 0 0 0 0 0 0 0 0 0 0 0 0 0 0 0 0 0 0 0 0 0 0 0 0 0 0 0 0 0 0 0 0 0 0 0 0 0 0 0 0 0 0 0 0 0 0 0 0 0 0 0 0 0 0 0 0 0 0 0 0 0 0 0 0 0 0 0 0 0 0 0 0 0 0 0 0 0 0 0 0 0 0 0 0 0 0 0 0 0 0 0 0 0 0 0 0 0 0 0 0 0 0 0 0 0 0 0 0 0 0 0 0 0 0 0 0 0 0 0 0 0 0 0 0 0 0 0 0 0 0 0 0 0 0 0 0 0 0 0 0 0 0 0 0 0 0 0 0 0 0 0 0 0 0 0 0 0 0 0 0 0 0 0 0 0 0 0 0 0 0 0 0 0 0 0 0 0 0 0 0 0 0 0 0 0 0 0 0 0 0 0 0 0 0 0 0 0 0 0 0 0 0 0 0 0 0 0 0 0 0 0 0 0 0 0 0 0 0 0 0 0 0 0 0 0 0 0 0 0 0 0 0 0 0 0 0 0 0 0 0 0 0 0 0 0 0 0 0 0 0 0 0 0 0 0 0 0 0 0 0 0 0 0 0 0 0 0 0 0 0 0 0 0 0 0 0 0 0 0 0 0 0 0 0 0 0 0 0 0 0 0 0 0 0 0 0 0 0 0 0 0 0 0 0 0 0 0 0 0 0 0 0 0 0 0 0 0 0 0 0 0 0 0 0 0 0 0 0 0 0 0 0 0 0 0 0 0 0 0 0 0 0 0 0 0 0 0 0 0 0 0 0 0 0 0 0 0 0 0 0 0 0 0 0 0 0 0 0 0 0 0 0 0 0 0 0 0 0 0 0 0 0 0 0 0 0 0 0 0 0 0 0 0 0 0 0 0 0 0 0 0 0 0 0 0 0 0 0 0 0 0 0 0 0 0 0 0 0 0 0 0 0 0 0 0 0 0 0 0 0 0 0 0 0 0 0 0 0 0 0 0 0 0 0 0 0 0 0 0 0 0 0 0 0 0 0 0 0 0 0 0 0 0 0 0 0 0 0 0 0 0 0 0 0 0 0 0 0 0 0 0 0 0 0 0 0 0 0 0 0 0 0 0 0 0 0 
0.02 0.02 0.02 0.02 0.02 0.02 0.0199999 0.0199999 0.0199998 0.0199996 0.0199994 0.0199991 0.0199986 0.019998 0.0199972 0.0199961 0.0199948 0.0199931 0.0199911 0.0199886 0.0199857 0.0199822 0.0199781 0.0199734 0.019968 0.0199618 0.0199547 0.0199467 0.0199376 0.0199275 0.0199161 0.0199034 0.0198891 0.0198733 0.0198555 0.0198357 0.0198137 0.0197892 0.019762 0.0197318 0.0196984 0.0196615 0.019621 0.0195765 0.019528 0.0194751 0.0194179 0.0193561 0.0192898 0.0192189 0.0191433 0.0190632 0.0189786 0.0188896 0.0187965 0.0186993 0.0185985 0.0184947 0.0183883 0.0182802 0.0181713 0.0180627 0.0179556 0.0178513 0.0177509 0.0176558 0.0175664 0.0174815 0.0173777 0.0172556 0.0171595 0.0170823 0.017012 0.0169428 0.0168677 0.0167893 0.0166641 0.0168111 0.0190347 0 0 0 0 0 0 0 0 0 0 0 0 0 0 0 0 0 0 0 0 0 0 0 0 0 0 0 0 0 0 0 0 0 0 0 0 0 0 0 0 0 0 0 0 0 0 0 0 0 0 0 0 0 0 0 0 0 0 0 0 0 0 0 0 0 0 0 0 0 0 0 0 0 0 0 0 0 0 0 0 0 0 0 0 0 0 0 0 0 0 0 0 0 0 0 0 0 0 0 0 0 0 0 0 0 0 0 0 0 0 0 0 0 0 0 0 0 0 0 0 0 0 0 0 0 0 0 0 0 0 0 0 0 0 0 0 0 0 0 0 0 0 0 0 0 0 0 0 0 0 0 0 0 0 0 0 0 0 0 0 0 0 0 0 0 0 0 0 0 0 0 0 0 0 0 0 0 0 0 0 0 0 0 0 0 0 0 0 0 0 0 0 0 0 0 0 0 0 0 0 0 0 0 0 0 0 0 0 0 0 0 0 0 0 0 0 0 0 0 0 0 0 0 0 0 0 0 0 0 0 0 0 0 0 0 0 0 0 0 0 0 0 0 0 0 0 0 0 0 0 0 0 0 0 0 0 0 0 0 0 0 0 0 0 0 0 0 0 0 0 0 0 0 0 0 0 0 0 0 0 0 0 0 0 0 0 0 0 0 0 0 0 0 0 0 0 0 0 0 0 0 0 0 0 0 0 0 0 0 0 0 0 0 0 0 0 0 0 0 0 0 0 0 0 0 0 0 0 0 0 0 0 0 0 0 0 0 0 0 0 0 0 0 0 0 0 0 0 0 0 0 0 0 0 0 0 0 0 0 0 0 0 0 0 0 0 0 0 0 0 0 0 0 0 0 0 0 0 0 0 0 0 0 0 0 0 0 0 0 0 0 0 0 0 0 0 0 0 0 0 0 0 0 0 0 0 0 0 0 0 0 0 0 0 0 0 0 0 0 0 0 0 0 0 0 0 0 0 0 0 0 0 0 0 0 0 0 0 0 0 0 0 0 0 0 0 0 0 0 0 0 0 0 0 0 0 0 0 0 0 0 0 0 0 0 0 0 0 0 0 0 0 0 0 0 0 0 0 0 0 0 0 0 0 0 0 0 0 0 0 0 0 0 0 0 0 0 0 0 0 0 0 0 0 0 0 0 0 0 0 0 0 0 0 0 0 0 0 0 0 0 0 0 0 0 0 0 0 0 0 0 0 0 0 0 0 0 0 0 0 0 0 
0.02 0.02 0.02 0.02 0.02 0.02 0.0199999 0.0199998 0.0199997 0.0199996 0.0199993 0.019999 0.0199986 0.0199979 0.0199971 0.0199961 0.0199947 0.0199931 0.0199911 0.0199886 0.0199857 0.0199823 0.0199783 0.0199736 0.0199683 0.0199621 0.0199551 0.0199473 0.0199384 0.0199284 0.0199172 0.0199047 0.0198907 0.019875 0.0198576 0.0198381 0.0198165 0.0197924 0.0197656 0.0197358 0.0197029 0.0196666 0.0196266 0.0195828 0.0195348 0.0194826 0.019426 0.0193649 0.0192993 0.019229 0.019154 0.0190744 0.0189903 0.0189017 0.0188087 0.0187116 0.0186108 0.0185065 0.0183996 0.0182906 0.0181804 0.0180701 0.0179609 0.0178538 0.0177501 0.0176509 0.0175565 0.0174645 0.0173656 0.0172545 0.0171574 0.0170736 0.0169973 0.0169243 0.0168533 0.0168009 0.0166944 0.0166768 0.0170424 0.0167676 0.0161613 0.0154901 0.0145893 0.0133074 0.0116221 0.00970648 0.00760552 0.00547202 0.00404864 0.000246046 0 0 0 0 0 0 0 0 0 0 0 0 0 0 0 0 0 0 0 0 0 0 0 0 0 0 0 0 0 0 0 0 0 0 0 0 0 0 0 0 0 0 0 0 0 0 0 0 0 0 0 0 0 0 0 0 0 0 0 0 0 0 0 0 0 0 0 0 0 0 0 0 0 0 0 0 0 0 0 0 0 0 0 0 0 0 0 0 0 0 0 0 0 0 0 0 0 0 0 0 0 0 0 0 0 0 0 0 0 0 0 0 0 0 0 0 0 0 0 0 0 0 0 0 0 0 0 0 0 0 0 0 0 0 0 0 0 0 0 0 0 0 0 0 0 0 0 0 0 0 0 0 0 0 0 0 0 0 0 0 0 0 0 0 0 0 0 0 0 0 0 0 0 0 0 0 0 0 0 0 0 0 0 0 0 0 0 0 0 0 0 0 0 0 0 0 0 0 0 0 0 0 0 0 0 0 0 0 0 0 0 0 0 0 0 0 0 0 0 0 0 0 0 0 0 0 0 0 0 0 0 0 0 0 0 0 0 0 0 0 0 0 0 0 0 0 0 0 0 0 0 0 0 0 0 0 0 0 0 0 0 0 0 0 0 0 0 0 0 0 0 0 0 0 0 0 0 0 0 0 0 0 0 0 0 0 0 0 0 0 0 0 0 0 0 0 0 0 0 0 0 0 0 0 0 0 0 0 0 0 0 0 0 0 0 0 0 0 0 0 0 0 0 0 0 0 0 0 0 0 0 0 0 0 0 0 0 0 0 0 0 0 0 0 0 0 0 0 0 0 0 0 0 0 0 0 0 0 0 0 0 0 0 0 0 0 0 0 0 0 0 0 0 0 0 0 0 0 0 0 0 0 0 0 0 0 0 0 0 0 0 0 0 0 0 0 0 0 0 0 0 0 0 0 0 0 0 0 0 0 0 0 0 0 0 0 0 0 0 0 0 0 0 0 0 0 0 0 0 0 0 0 0 0 0 0 0 0 0 0 0 0 0 0 0 0 0 0 0 0 0 0 0 0 0 0 0 0 0 0 0 0 0 0 0 0 0 0 0 0 0 0 0 0 0 0 0 0 0 0 0 0 0 0 0 0 0 0 0 0 0 0 0 0 0 0 0 0 0 0 0 0 0 0 0 0 0 0 0 0 0 0 0 0 0 0 0 0 0 0 0 0 0 0 0 0 0 0 0 0 0 
0.02 0.02 0.02 0.02 0.02 0.0199999 0.0199999 0.0199998 0.0199997 0.0199995 0.0199993 0.0199989 0.0199985 0.0199978 0.019997 0.0199959 0.0199946 0.0199929 0.0199909 0.0199885 0.0199856 0.0199821 0.0199781 0.0199735 0.0199681 0.019962 0.0199551 0.0199473 0.0199385 0.0199286 0.0199175 0.0199051 0.0198912 0.0198758 0.0198586 0.0198394 0.019818 0.0197942 0.0197678 0.0197385 0.0197061 0.0196703 0.0196309 0.0195876 0.0195404 0.0194889 0.0194332 0.0193729 0.0193081 0.0192387 0.0191647 0.0190861 0.0190028 0.0189151 0.018823 0.0187266 0.0186264 0.0185228 0.0184162 0.0183074 0.0181973 0.0180868 0.0179771 0.0178692 0.0177642 0.0176631 0.0175661 0.0174711 0.0173729 0.0172694 0.0171698 0.0170789 0.0169958 0.0169206 0.0168617 0.016845 0.0168377 0.0167661 0.0167686 0.0165072 0.0160445 0.0153765 0.014461 0.0132273 0.0116803 0.00984663 0.00774534 0.00546336 0.00317996 -0.00025928 -0.00438699 -0.00924581 -0.0173551 0 0 0 0 0 0 0 0 0 0 0 0 0 0 0 0 0 0 0 0 0 0 0 0 0 0 0 0 0 0 0 0 0 0 0 0 0 0 0 0 0 0 0 0 0 0 0 0 0 0 0 0 0 0 0 0 0 0 0 0 0 0 0 0 0 0 0 0 0 0 0 0 0 0 0 0 0 0 0 0 0 0 0 0 0 0 0 0 0 0 0 0 0 0 0 0 0 0 0 0 0 0 0 0 0 0 0 0 0 0 0 0 0 0 0 0 0 0 0 0 0 0 0 0 0 0 0 0 0 0 0 0 0 0 0 0 0 0 0 0 0 0 0 0 0 0 0 0 0 0 0 0 0 0 0 0 0 0 0 0 0 0 0 0 0 0 0 0 0 0 0 0 0 0 0 0 0 0 0 0 0 0 0 0 0 0 0 0 0 0 0 0 0 0 0 0 0 0 0 0 0 0 0 0 0 0 0 0 0 0 0 0 0 0 0 0 0 0 0 0 0 0 0 0 0 0 0 0 0 0 0 0 0 0 0 0 0 0 0 0 0 0 0 0 0 0 0 0 0 0 0 0 0 0 0 0 0 0 0 0 0 0 0 0 0 0 0 0 0 0 0 0 0 0 0 0 0 0 0 0 0 0 0 0 0 0 0 0 0 0 0 0 0 0 0 0 0 0 0 0 0 0 0 0 0 0 0 0 0 0 0 0 0 0 0 0 0 0 0 0 0 0 0 0 0 0 0 0 0 0 0 0 0 0 0 0 0 0 0 0 0 0 0 0 0 0 0 0 0 0 0 0 0 0 0 0 0 0 0 0 0 0 0 0 0 0 0 0 0 0 0 0 0 0 0 0 0 0 0 0 0 0 0 0 0 0 0 0 0 0 0 0 0 0 0 0 0 0 0 0 0 0 0 0 0 0 0 0 0 0 0 0 0 0 0 0 0 0 0 0 0 0 0 0 0 0 0 0 0 0 0 0 0 0 0 0 0 0 0 0 0 0 0 0 0 0 0 0 0 0 0 0 0 0 0 0 0 0 0 0 0 0 0 0 0 0 0 0 0 0 0 0 0 0 0 0 0 0 0 0 0 0 0 0 0 0 0 0 0 0 0 0 0 0 0 0 0 0 0 0 0 0 0 0 0 0 0 0 0 0 0 0 0 0 0 0 0 0 0 0 0 0 0 0 0 0 0 -5.42101e-20 
0.02 0.02 0.02 0.02 0.02 0.0199999 0.0199999 0.0199998 0.0199997 0.0199995 0.0199992 0.0199988 0.0199984 0.0199977 0.0199969 0.0199958 0.0199945 0.0199928 0.0199908 0.0199883 0.0199854 0.019982 0.019978 0.0199734 0.019968 0.019962 0.0199551 0.0199474 0.0199386 0.0199289 0.0199179 0.0199057 0.0198921 0.0198769 0.01986 0.0198412 0.0198202 0.0197969 0.019771 0.0197424 0.0197106 0.0196756 0.019637 0.0195947 0.0195485 0.0194982 0.0194436 0.0193846 0.0193211 0.0192531 0.0191805 0.0191034 0.0190216 0.0189354 0.0188447 0.0187498 0.018651 0.0185486 0.0184432 0.0183355 0.0182263 0.0181164 0.018007 0.0178991 0.0177937 0.0176915 0.0175927 0.0174955 0.0173968 0.017295 0.0171935 0.0170968 0.0170074 0.0169303 0.0168796 0.0168714 0.0168917 0.0168715 0.0167113 0.0164047 0.0159562 0.0153086 0.0144057 0.0132218 0.0117594 0.00999946 0.00792886 0.00552692 0.00285436 -0.000478615 -0.00437056 -0.00942156 -0.0180589 -0.029386 0 0 0 0 0 0 0 0 0 0 0 0 0 0 0 0 0 0 0 0 0 0 0 0 0 0 0 0 0 0 0 0 0 0 0 0 0 0 0 0 0 0 0 0 0 0 0 0 0 0 0 0 0 0 0 0 0 0 0 0 0 0 0 0 0 0 0 0 0 0 0 0 0 0 0 0 0 0 0 0 0 0 0 0 0 0 0 0 0 0 0 0 0 0 0 0 0 0 0 0 0 0 0 0 0 0 0 0 0 0 0 0 0 0 0 0 0 0 0 0 0 0 0 0 0 0 0 0 0 0 0 0 0 0 0 0 0 0 0 0 0 0 0 0 0 0 0 0 0 0 0 0 0 0 0 0 0 0 0 0 0 0 0 0 0 0 0 0 0 0 0 0 0 0 0 0 0 0 0 0 0 0 0 0 0 0 0 0 0 0 0 0 0 0 0 0 0 0 0 0 0 0 0 0 0 0 0 0 0 0 0 0 0 0 0 0 0 0 0 0 0 0 0 0 0 0 0 0 0 0 0 0 0 0 0 0 0 0 0 0 0 0 0 0 0 0 0 0 0 0 0 0 0 0 0 0 0 0 0 0 0 0 0 0 0 0 0 0 0 0 0 0 0 0 0 0 0 0 0 0 0 0 0 0 0 0 0 0 0 0 0 0 0 0 0 0 0 0 0 0 0 0 0 0 0 0 0 0 0 0 0 0 0 0 0 0 0 0 0 0 0 0 0 0 0 0 0 0 0 0 0 0 0 0 0 0 0 0 0 0 0 0 0 0 0 0 0 0 0 0 0 0 0 0 0 0 0 0 0 0 0 0 0 0 0 0 0 0 0 0 0 0 0 0 0 0 0 0 0 0 0 0 0 0 0 0 0 0 0 0 0 0 0 0 0 0 0 0 0 0 0 0 0 0 0 0 0 0 0 0 0 0 0 0 0 0 0 0 0 0 0 0 0 0 0 0 0 0 0 0 0 0 0 0 0 0 0 0 0 0 0 0 0 0 0 0 0 0 0 0 0 0 0 0 0 0 0 0 0 0 0 0 0 0 0 0 0 0 0 0 0 0 0 0 0 0 0 0 0 0 0 0 0 0 0 0 0 0 0 0 0 0 0 0 0 0 0 0 0 0 0 0 0 0 0 0 0 0 0 0 0 0 0 0 0 0 0 0 0 0 0 0 0 0 0 -0.00417001 -5.42101e-19 
0.02 0.02 0.02 0.02 0.0199999 0.0199999 0.0199998 0.0199997 0.0199996 0.0199994 0.0199991 0.0199988 0.0199983 0.0199976 0.0199968 0.0199957 0.0199943 0.0199927 0.0199906 0.0199882 0.0199853 0.0199819 0.0199779 0.0199733 0.0199681 0.0199621 0.0199553 0.0199477 0.0199391 0.0199296 0.0199189 0.0199069 0.0198937 0.0198789 0.0198624 0.0198441 0.0198237 0.0198011 0.019776 0.0197481 0.0197174 0.0196834 0.019646 0.019605 0.0195602 0.0195113 0.0194583 0.0194011 0.0193394 0.0192733 0.0192027 0.0191276 0.0190479 0.0189637 0.0188751 0.0187824 0.0186856 0.0185852 0.0184818 0.0183758 0.0182682 0.0181597 0.0180514 0.017944 0.0178386 0.0177356 0.0176351 0.0175356 0.0174351 0.0173319 0.0172276 0.0171257 0.0170304 0.0169498 0.0168966 0.0168772 0.0168679 0.0168104 0.0166421 0.0163416 0.0158898 0.0152467 0.0143753 0.013241 0.0118326 0.0101085 0.00800847 0.00558014 0.00269557 -0.000652627 -0.00440553 -0.00887442 -0.0146989 -0.0251269 -0.0366172 0 0 0 0 0 0 0 0 0 0 0 0 0 0 0 0 0 0 0 0 0 0 0 0 0 0 0 0 0 0 0 0 0 0 0 0 0 0 0 0 0 0 0 0 0 0 0 0 0 0 0 0 0 0 0 0 0 0 0 0 0 0 0 0 0 0 0 0 0 0 0 0 0 0 0 0 0 0 0 0 0 0 0 0 0 0 0 0 0 0 0 0 0 0 0 0 0 0 0 0 0 0 0 0 0 0 0 0 0 0 0 0 0 0 0 0 0 0 0 0 0 0 0 0 0 0 0 0 0 0 0 0 0 0 0 0 0 0 0 0 0 0 0 0 0 0 0 0 0 0 0 0 0 0 0 0 0 0 0 0 0 0 0 0 0 0 0 0 0 0 0 0 0 0 0 0 0 0 0 0 0 0 0 0 0 0 0 0 0 0 0 0 0 0 0 0 0 0 0 0 0 0 0 0 0 0 0 0 0 0 0 0 0 0 0 0 0 0 0 0 0 0 0 0 0 0 0 0 0 0 0 0 0 0 0 0 0 0 0 0 0 0 0 0 0 0 0 0 0 0 0 0 0 0 0 0 0 0 0 0 0 0 0 0 0 0 0 0 0 0 0 0 0 0 0 0 0 0 0 0 0 0 0 0 0 0 0 0 0 0 0 0 0 0 0 0 0 0 0 0 0 0 0 0 0 0 0 0 0 0 0 0 0 0 0 0 0 0 0 0 0 0 0 0 0 0 0 0 0 0 0 0 0 0 0 0 0 0 0 0 0 0 0 0 0 0 0 0 0 0 0 0 0 0 0 0 0 0 0 0 0 0 0 0 0 0 0 0 0 0 0 0 0 0 0 0 0 0 0 0 0 0 0 0 0 0 0 0 0 0 0 0 0 0 0 0 0 0 0 0 0 0 0 0 0 0 0 0 0 0 0 0 0 0 0 0 0 0 0 0 0 0 0 0 0 0 0 0 0 0 0 0 0 0 0 0 0 0 0 0 0 0 0 0 0 0 0 0 0 0 0 0 0 0 0 0 0 0 0 0 0 0 0 0 0 0 0 0 0 0 0 0 0 0 0 0 0 0 0 0 0 0 0 0 0 0 0 0 0 0 0 0 0 0 0 0 0 0 0 0 0 0 0 0 0 0 0 0 0 0 0 0 0 0 0 0 0 0 0 0 0 0 0 -0.0137596 -0.00713796 8.67362e-19 
0.02 0.02 0.02 0.02 0.0199999 0.0199999 0.0199998 0.0199997 0.0199996 0.0199993 0.0199991 0.0199987 0.0199982 0.0199975 0.0199966 0.0199956 0.0199942 0.0199925 0.0199905 0.0199881 0.0199852 0.0199818 0.0199779 0.0199734 0.0199683 0.0199624 0.0199558 0.0199484 0.01994 0.0199307 0.0199203 0.0199088 0.019896 0.0198817 0.0198658 0.0198482 0.0198286 0.0198068 0.0197827 0.019756 0.0197264 0.0196938 0.0196579 0.0196185 0.0195754 0.0195285 0.0194775 0.0194224 0.0193631 0.0192994 0.0192313 0.0191587 0.0190817 0.0190002 0.0189144 0.0188243 0.0187303 0.0186326 0.0185318 0.0184283 0.0183229 0.0182163 0.0181095 0.0180031 0.0178979 0.0177943 0.017692 0.01759 0.0174865 0.0173803 0.0172719 0.0171644 0.0170628 0.0169753 0.016911 0.0168697 0.0168276 0.0167395 0.016559 0.016258 0.0158112 0.0151849 0.0143465 0.0132589 0.011879 0.010171 0.00807456 0.0055736 0.00267603 -0.000643981 -0.00434113 -0.00849772 -0.013004 -0.0178656 -0.0252781 -0.037502 0 0 0 0 0 0 0 0 0 0 0 0 0 0 0 0 0 0 0 0 0 0 0 0 0 0 0 0 0 0 0 0 0 0 0 0 0 0 0 0 0 0 0 0 0 0 0 0 0 0 0 0 0 0 0 0 0 0 0 0 0 0 0 0 0 0 0 0 0 0 0 0 0 0 0 0 0 0 0 0 0 0 0 0 0 0 0 0 0 0 0 0 0 0 0 0 0 0 0 0 0 0 0 0 0 0 0 0 0 0 0 0 0 0 0 0 0 0 0 0 0 0 0 0 0 0 0 0 0 0 0 0 0 0 0 0 0 0 0 0 0 0 0 0 0 0 0 0 0 0 0 0 0 0 0 0 0 0 0 0 0 0 0 0 0 0 0 0 0 0 0 0 0 0 0 0 0 0 0 0 0 0 0 0 0 0 0 0 0 0 0 0 0 0 0 0 0 0 0 0 0 0 0 0 0 0 0 0 0 0 0 0 0 0 0 0 0 0 0 0 0 0 0 0 0 0 0 0 0 0 0 0 0 0 0 0 0 0 0 0 0 0 0 0 0 0 0 0 0 0 0 0 0 0 0 0 0 0 0 0 0 0 0 0 0 0 0 0 0 0 0 0 0 0 0 0 0 0 0 0 0 0 0 0 0 0 0 0 0 0 0 0 0 0 0 0 0 0 0 0 0 0 0 0 0 0 0 0 0 0 0 0 0 0 0 0 0 0 0 0 0 0 0 0 0 0 0 0 0 0 0 0 0 0 0 0 0 0 0 0 0 0 0 0 0 0 0 0 0 0 0 0 0 0 0 0 0 0 0 0 0 0 0 0 0 0 0 0 0 0 0 0 0 0 0 0 0 0 0 0 0 0 0 0 0 0 0 0 0 0 0 0 0 0 0 0 0 0 0 0 0 0 0 0 0 0 0 0 0 0 0 0 0 0 0 0 0 0 0 0 0 0 0 0 0 0 0 0 0 0 0 0 0 0 0 0 0 0 0 0 0 0 0 0 0 0 0 0 0 0 0 0 0 0 0 0 0 0 0 0 0 0 0 0 0 0 0 0 0 0 0 0 0 0 0 0 0 0 0 0 0 0 0 0 0 0 0 0 0 0 0 0 0 0 0 0 0 0 0 0 0 0 0 0 0 0 0 0 0 0 0 0 0 0 0 0 0 0 0 -0.0318244 -0.0291366 -0.0238038 -0.0170455 -0.00930609 -1.95156e-18 
0.02 0.02 0.02 0.0199999 0.0199999 0.0199998 0.0199998 0.0199997 0.0199995 0.0199993 0.019999 0.0199986 0.0199981 0.0199974 0.0199966 0.0199955 0.0199941 0.0199925 0.0199905 0.0199881 0.0199852 0.0199819 0.0199781 0.0199737 0.0199687 0.019963 0.0199565 0.0199494 0.0199413 0.0199324 0.0199224 0.0199113 0.019899 0.0198854 0.0198703 0.0198535 0.0198348 0.0198141 0.0197912 0.0197658 0.0197377 0.0197068 0.0196727 0.0196352 0.0195943 0.0195496 0.0195011 0.0194485 0.0193919 0.0193311 0.0192659 0.0191965 0.0191226 0.0190444 0.0189619 0.0188752 0.0187846 0.0186902 0.0185925 0.0184921 0.0183895 0.0182853 0.0181804 0.0180753 0.0179705 0.0178663 0.0177622 0.0176572 0.01755 0.0174394 0.0173258 0.0172119 0.0171027 0.017005 0.0169245 0.0168571 0.0167824 0.0166654 0.0164694 0.016165 0.0157253 0.0151191 0.0143093 0.0132543 0.0118972 0.0101923 0.00810988 0.00563009 0.00276678 -0.000479925 -0.0041263 -0.00814033 -0.0125422 -0.017317 -0.02315 -0.0312907 -0.0386296 0 0 0 0 0 0 0 0 0 0 0 0 0 0 0 0 0 0 0 0 0 0 0 0 0 0 0 0 0 0 0 0 0 0 0 0 0 0 0 0 0 0 0 0 0 0 0 0 0 0 0 0 0 0 0 0 0 0 0 0 0 0 0 0 0 0 0 0 0 0 0 0 0 0 0 0 0 0 0 0 0 0 0 0 0 0 0 0 0 0 0 0 0 0 0 0 0 0 0 0 0 0 0 0 0 0 0 0 0 0 0 0 0 0 0 0 0 0 0 0 0 0 0 0 0 0 0 0 0 0 0 0 0 0 0 0 0 0 0 0 0 0 0 0 0 0 0 0 0 0 0 0 0 0 0 0 0 0 0 0 0 0 0 0 0 0 0 0 0 0 0 0 0 0 0 0 0 0 0 0 0 0 0 0 0 0 0 0 0 0 0 0 0 0 0 0 0 0 0 0 0 0 0 0 0 0 0 0 0 0 0 0 0 0 0 0 0 0 0 0 0 0 0 0 0 0 0 0 0 0 0 0 0 0 0 0 0 0 0 0 0 0 0 0 0 0 0 0 0 0 0 0 0 0 0 0 0 0 0 0 0 0 0 0 0 0 0 0 0 0 0 0 0 0 0 0 0 0 0 0 0 0 0 0 0 0 0 0 0 0 0 0 0 0 0 0 0 0 0 0 0 0 0 0 0 0 0 0 0 0 0 0 0 0 0 0 0 0 0 0 0 0 0 0 0 0 0 0 0 0 0 0 0 0 0 0 0 0 0 0 0 0 0 0 0 0 0 0 0 0 0 0 0 0 0 0 0 0 0 0 0 0 0 0 0 0 0 0 0 0 0 0 0 0 0 0 0 0 0 0 0 0 0 0 0 0 0 0 0 0 0 0 0 0 0 0 0 0 0 0 0 -0.0419884 -0.0484094 -0.052895 -0.0548503 -0.0556669 -0.055901 -0.055384 -0.0546929 -0.0539168 -0.053003 -0.0519983 -0.0509635 -0.0499443 -0.0489633 -0.0480354 -0.0471665 -0.046353 -0.0455868 -0.0448574 -0.0441121 -0.0432224 -0.0423864 -0.0416048 -0.0409067 -0.0402722 -0.0397 -0.0391844 -0.0387273 -0.0383326 -0.0380017 -0.0377377 -0.0375413 -0.0374123 -0.0373499 -0.0373526 -0.0374181 -0.0375437 -0.037726 -0.0379325 -0.0381396 -0.0384283 -0.0387762 -0.0391778 -0.0396157 -0.0400808 -0.0405638 -0.0410555 -0.0415454 -0.0420162 -0.0424196 -0.0426886 -0.0429832 -0.0432956 -0.0435952 -0.0438697 -0.0441144 -0.0443294 -0.0445158 -0.0446755 -0.0448107 -0.0449247 -0.0450226 -0.0451132 -0.0452103 -0.045356 -0.0459778 -0.0523029 0 0 0 0 0 0 0 0 0 -0.0410866 -0.0426065 -0.0430566 -0.043205 -0.0432444 -0.0432384 -0.0432138 -0.0431623 -0.043075 -0.0429512 -0.0427991 -0.0426312 -0.0424588 -0.0422895 -0.0421271 -0.0419734 -0.0418292 -0.0416948 -0.0415702 -0.041455 -0.0413487 -0.0412505 -0.0411596 -0.0410749 -0.0409955 -0.0409205 -0.0408489 -0.0407795 -0.0407095 -0.0406335 -0.0405323 -0.0403883 -0.0401669 -0.0399999 -0.03983 -0.0396117 -0.0393085 -0.0388695 -0.0381736 -0.0370858 -0.0352475 -0.0329755 -0.0295121 -0.0245626 -0.0182664 -0.0104169 -1.30104e-18 
0.02 0.02 0.02 0.0199999 0.0199999 0.0199998 0.0199997 0.0199996 0.0199995 0.0199992 0.0199989 0.0199985 0.019998 0.0199973 0.0199965 0.0199954 0.0199941 0.0199924 0.0199905 0.0199881 0.0199854 0.0199821 0.0199784 0.0199741 0.0199693 0.0199638 0.0199576 0.0199507 0.019943 0.0199345 0.019925 0.0199145 0.0199029 0.01989 0.0198757 0.0198599 0.0198424 0.019823 0.0198014 0.0197776 0.0197512 0.0197222 0.0196901 0.0196549 0.0196164 0.0195743 0.0195286 0.0194791 0.0194256 0.019368 0.0193063 0.0192404 0.0191703 0.0190959 0.0190172 0.0189344 0.0188477 0.0187571 0.0186632 0.0185663 0.0184669 0.0183656 0.0182629 0.0181592 0.0180549 0.01795 0.017844 0.0177358 0.0176242 0.0175083 0.0173886 0.0172672 0.0171486 0.0170382 0.0169387 0.0168446 0.0167389 0.0165942 0.0163807 0.0160706 0.0156363 0.0150463 0.0142606 0.0132308 0.0119081 0.0102399 0.00819478 0.00576331 0.00296405 -0.000181582 -0.00364677 -0.007463 -0.0116604 -0.0164486 -0.0221218 -0.0296707 -0.0403455 0 0 0 0 0 0 0 0 0 0 0 0 0 0 0 0 0 0 0 0 0 0 0 0 0 0 0 0 0 0 0 0 0 0 0 0 0 0 0 0 0 0 0 0 0 0 0 0 0 0 0 0 0 0 0 0 0 0 0 0 0 0 0 0 0 0 0 0 0 0 0 0 0 0 0 0 0 0 0 0 0 0 0 0 0 0 0 0 0 0 0 0 0 0 0 0 0 0 0 0 0 0 0 0 0 0 0 0 0 0 0 0 0 0 0 0 0 0 0 0 0 0 0 0 0 0 0 0 0 0 0 0 0 0 0 0 0 0 0 0 0 0 0 0 0 0 0 0 0 0 0 0 0 0 0 0 0 0 0 0 0 0 0 0 0 0 0 0 0 0 0 0 0 0 0 0 0 0 0 0 0 0 0 0 0 0 0 0 0 0 0 0 0 0 0 0 0 0 0 0 0 0 0 0 0 0 0 0 0 0 0 0 0 0 0 0 0 0 0 0 0 0 0 0 0 0 0 0 0 0 0 0 0 0 0 0 0 0 0 0 0 0 0 0 0 0 0 0 0 0 0 0 0 0 0 0 0 0 0 0 0 0 0 0 0 0 0 0 0 0 0 0 0 0 0 0 0 0 0 0 0 0 0 0 0 0 0 0 0 0 0 0 0 0 0 0 0 0 0 0 0 0 0 0 0 0 0 0 0 0 0 0 0 0 0 0 0 0 0 0 0 0 0 0 0 0 0 0 0 0 0 0 0 0 0 0 0 0 0 0 0 0 0 0 0 0 0 0 0 0 0 0 0 0 0 0 0 0 0 0 0 0 0 0 0 0 0 0 0 0 0 0 0 0 0 0 0 0 0 0 0 0 0 0 0 0 0 0 0 0 0 0 0 0 0 0 0 0 0 -0.0364341 -0.0380094 -0.0432829 -0.0484256 -0.0522345 -0.0545078 -0.0551175 -0.0553424 -0.0551458 -0.0545503 -0.0537712 -0.0528617 -0.051868 -0.050843 -0.0498414 -0.0488819 -0.0479748 -0.0471249 -0.046328 -0.0455741 -0.0448522 -0.0441389 -0.0433739 -0.0425511 -0.0417749 -0.0410574 -0.0404017 -0.0398108 -0.0392815 -0.0388141 -0.0384126 -0.0380773 -0.0378099 -0.037611 -0.0374793 -0.0374136 -0.0374121 -0.0374722 -0.0375912 -0.0377658 -0.037984 -0.0382229 -0.0385036 -0.0388354 -0.0392133 -0.0396264 -0.0400665 -0.0405242 -0.0409895 -0.0414494 -0.0418862 -0.0422768 -0.0426031 -0.0429251 -0.0432414 -0.0435421 -0.0438184 -0.0440657 -0.0442839 -0.044474 -0.0446376 -0.0447769 -0.044895 -0.044997 -0.0450919 -0.0451958 -0.0453467 -0.0458175 -0.0469643 -0.0472251 -0.0462667 -0.0458568 -0.0457792 -0.0456179 -0.0454344 -0.0452848 -0.0449581 -0.0440887 -0.0432058 -0.0431461 -0.0432022 -0.0432433 -0.0432576 -0.0432472 -0.0432195 -0.0431665 -0.0430807 -0.0429606 -0.0428129 -0.0426482 -0.0424775 -0.0423088 -0.0421465 -0.0419926 -0.0418481 -0.0417134 -0.0415884 -0.0414728 -0.0413661 -0.0412674 -0.0411758 -0.0410902 -0.0410096 -0.0409328 -0.0408588 -0.0407853 -0.0407089 -0.0406231 -0.0405173 -0.0403841 -0.040231 -0.0400837 -0.0399209 -0.039709 -0.0394077 -0.0389477 -0.0382028 -0.0370301 -0.0352721 -0.0329745 -0.029619 -0.0249838 -0.0189883 -0.0110747 -1.0842e-18 
0.02 0.02 0.02 0.0199999 0.0199999 0.0199998 0.0199997 0.0199996 0.0199994 0.0199992 0.0199989 0.0199985 0.019998 0.0199973 0.0199964 0.0199954 0.0199941 0.0199925 0.0199905 0.0199883 0.0199856 0.0199824 0.0199789 0.0199747 0.0199701 0.0199648 0.019959 0.0199524 0.0199452 0.0199371 0.0199282 0.0199184 0.0199075 0.0198955 0.0198822 0.0198675 0.0198513 0.0198332 0.0198133 0.0197912 0.0197668 0.0197398 0.0197101 0.0196774 0.0196416 0.0196025 0.0195598 0.0195136 0.0194636 0.0194097 0.0193519 0.01929 0.019224 0.0191538 0.0190795 0.0190011 0.0189187 0.0188326 0.0187428 0.0186499 0.0185541 0.0184559 0.0183555 0.0182534 0.0181497 0.018044 0.0179359 0.0178243 0.017708 0.0175863 0.0174594 0.0173295 0.0172 0.0170748 0.016955 0.0168348 0.0167 0.016529 0.0162973 0.0159792 0.0155473 0.0149691 0.0142036 0.0132026 0.0119147 0.0102991 0.00832518 0.00598078 0.00327656 0.000252606 -0.00304697 -0.00656168 -0.0102621 -0.0141697 -0.0182726 -0.0234389 -0.0304765 -0.0425238 0 0 0 0 0 0 0 0 0 0 0 0 0 0 0 0 0 0 0 0 0 0 0 0 0 0 0 0 0 0 0 0 0 0 0 0 0 0 0 0 0 0 0 0 0 0 0 0 0 0 0 0 0 0 0 0 0 0 0 0 0 0 0 0 0 0 0 0 0 0 0 0 0 0 0 0 0 0 0 0 0 0 0 0 0 0 0 0 0 0 0 0 0 0 0 0 0 0 0 0 0 0 0 0 0 0 0 0 0 0 0 0 0 0 0 0 0 0 0 0 0 0 0 0 0 0 0 0 0 0 0 0 0 0 0 0 0 0 0 0 0 0 0 0 0 0 0 0 0 0 0 0 0 0 0 0 0 0 0 0 0 0 0 0 0 0 0 0 0 0 0 0 0 0 0 0 0 0 0 0 0 0 0 0 0 0 0 0 0 0 0 0 0 0 0 0 0 0 0 0 0 0 0 0 0 0 0 0 0 0 0 0 0 0 0 0 0 0 0 0 0 0 0 0 0 0 0 0 0 0 0 0 0 0 0 0 0 0 0 0 0 0 0 0 0 0 0 0 0 0 0 0 0 0 0 0 0 0 0 0 0 0 0 0 0 0 0 0 0 0 0 0 0 0 0 0 0 0 0 0 0 0 0 0 0 0 0 0 0 0 0 0 0 0 0 0 0 0 0 0 0 0 0 0 0 0 0 0 0 0 0 0 0 0 0 0 0 0 0 0 0 0 0 0 0 0 0 0 0 0 0 0 0 0 0 0 0 0 0 0 0 0 0 0 0 0 0 0 0 0 0 0 0 0 0 0 0 0 0 0 0 0 0 0 0 0 0 0 0 0 0 0 0 0 0 0 0 0 0 0 0 0 0 0 0 0 0 0 0 0 0 0 0 0 0 0 0 -0.0361846 -0.0402957 -0.0404687 -0.0445528 -0.0487183 -0.0517503 -0.0536814 -0.0541892 -0.0545295 -0.0545004 -0.0540364 -0.0533173 -0.0524686 -0.0515456 -0.0505854 -0.0496443 -0.0487418 -0.0478857 -0.04708 -0.0463206 -0.0455971 -0.0448993 -0.0442125 -0.0435086 -0.0427583 -0.0419953 -0.0412634 -0.0405851 -0.0399687 -0.0394173 -0.0389331 -0.0385183 -0.0381733 -0.0378987 -0.0376938 -0.0375568 -0.0374858 -0.0374783 -0.0375315 -0.0376426 -0.0378082 -0.038023 -0.0382767 -0.0385591 -0.0388827 -0.0392436 -0.0396382 -0.0400586 -0.040496 -0.0409402 -0.041378 -0.0417959 -0.0421831 -0.0425397 -0.0428805 -0.0432058 -0.0435107 -0.0437897 -0.0440399 -0.0442613 -0.0444546 -0.0446213 -0.0447633 -0.0448837 -0.0449874 -0.0450841 -0.0451963 -0.0453978 -0.0458409 -0.0465112 -0.046779 -0.0464339 -0.0460732 -0.0458519 -0.0456426 -0.0454035 -0.0451093 -0.0446645 -0.0440434 -0.0435199 -0.0433309 -0.0432841 -0.0432785 -0.0432753 -0.0432612 -0.043229 -0.0431708 -0.0430815 -0.0429602 -0.0428131 -0.0426498 -0.0424803 -0.0423122 -0.0421502 -0.0419965 -0.0418522 -0.0417176 -0.0415927 -0.0414771 -0.0413702 -0.0412711 -0.0411787 -0.0410917 -0.041009 -0.0409291 -0.0408505 -0.0407709 -0.0406866 -0.040594 -0.0404888 -0.0403692 -0.0402445 -0.0401101 -0.0399485 -0.0397315 -0.0394153 -0.0389257 -0.0381547 -0.0369884 -0.0353022 -0.0329724 -0.0297073 -0.0252997 -0.0194773 -0.0114936 -3.03577e-18 
0.02 0.02 0.0199999 0.0199999 0.0199999 0.0199998 0.0199997 0.0199996 0.0199994 0.0199992 0.0199988 0.0199984 0.0199979 0.0199973 0.0199964 0.0199954 0.0199941 0.0199925 0.0199907 0.0199885 0.0199859 0.0199829 0.0199795 0.0199755 0.0199711 0.0199662 0.0199606 0.0199545 0.0199477 0.0199402 0.0199319 0.0199228 0.0199128 0.0199018 0.0198896 0.0198762 0.0198613 0.0198448 0.0198266 0.0198065 0.0197842 0.0197595 0.0197323 0.0197024 0.0196695 0.0196336 0.0195944 0.0195518 0.0195056 0.0194557 0.0194021 0.0193446 0.0192831 0.0192176 0.019148 0.0190744 0.0189969 0.0189154 0.0188303 0.0187416 0.0186497 0.0185548 0.0184571 0.0183567 0.0182535 0.0181471 0.0180368 0.0179217 0.0178004 0.0176725 0.0175379 0.0173984 0.0172568 0.0171157 0.0169751 0.0168297 0.0166679 0.0164722 0.016222 0.0158944 0.0154622 0.0148928 0.0141463 0.0131773 0.0119398 0.0103927 0.00850736 0.00627153 0.00369324 0.000800263 -0.00235718 -0.00571418 -0.00915853 -0.0125699 -0.0157686 -0.0190765 -0.0240238 -0.0306116 -0.0430598 0 0 0 0 0 0 0 0 0 0 0 0 0 0 0 0 0 0 0 0 0 0 0 0 0 0 0 0 0 0 0 0 0 0 0 0 0 0 0 0 0 0 0 0 0 0 0 0 0 0 0 0 0 0 0 0 0 0 0 0 0 0 0 0 0 0 0 0 0 0 0 0 0 0 0 0 0 0 0 0 0 0 0 0 0 0 0 0 0 0 0 0 0 0 0 0 0 0 0 0 0 0 0 0 0 0 0 0 0 0 0 0 0 0 0 0 0 0 0 0 0 0 0 0 0 0 0 0 0 0 0 0 0 0 0 0 0 0 0 0 0 0 0 0 0 0 0 0 0 0 0 0 0 0 0 0 0 0 0 0 0 0 0 0 0 0 0 0 0 0 0 0 0 0 0 0 0 0 0 0 0 0 0 0 0 0 0 0 0 0 0 0 0 0 0 0 0 0 0 0 0 0 0 0 0 0 0 0 0 0 0 0 0 0 0 0 0 0 0 0 0 0 0 0 0 0 0 0 0 0 0 0 0 0 0 0 0 0 0 0 0 0 0 0 0 0 0 0 0 0 0 0 0 0 0 0 0 0 0 0 0 0 0 0 0 0 0 0 0 0 0 0 0 0 0 0 0 0 0 0 0 0 0 0 0 0 0 0 0 0 0 0 0 0 0 0 0 0 0 0 0 0 0 0 0 0 0 0 0 0 0 0 0 0 0 0 0 0 0 0 0 0 0 0 0 0 0 0 0 0 0 0 0 0 0 0 0 0 0 0 0 0 0 0 0 0 0 0 0 0 0 0 0 0 0 0 0 0 0 0 0 0 0 0 0 0 0 0 0 0 0 0 0 0 0 0 0 0 0 0 0 0 0 0 0 0 0 0 0 0 0 0 0 0 0 -0.0406163 -0.039986 -0.0434611 -0.0435953 -0.0465219 -0.0490862 -0.0513665 -0.0525054 -0.0530261 -0.0535328 -0.0535952 -0.0532525 -0.0526475 -0.0519095 -0.0510952 -0.050237 -0.049384 -0.0485593 -0.0477711 -0.0470214 -0.0463081 -0.0456218 -0.0449541 -0.044294 -0.0436261 -0.0429308 -0.0422069 -0.0414882 -0.0408024 -0.0401687 -0.0395979 -0.0390956 -0.0386649 -0.0383069 -0.0380213 -0.0378066 -0.0376606 -0.0375806 -0.0375636 -0.0376065 -0.0377063 -0.0378598 -0.038063 -0.0383105 -0.0385949 -0.0389109 -0.0392606 -0.0396391 -0.0400412 -0.0404596 -0.0408849 -0.0413066 -0.0417149 -0.042105 -0.0424757 -0.0428289 -0.0431625 -0.0434724 -0.0437554 -0.0440099 -0.0442356 -0.0444332 -0.0446039 -0.0447496 -0.044873 -0.0449791 -0.0450785 -0.045201 -0.0454199 -0.0458106 -0.0463003 -0.0465823 -0.0464669 -0.0461719 -0.0458971 -0.0456325 -0.0453317 -0.0449434 -0.0444575 -0.0439522 -0.043581 -0.0433996 -0.0433324 -0.0433124 -0.0433034 -0.0432859 -0.0432486 -0.0431839 -0.0430882 -0.0429625 -0.0428129 -0.0426487 -0.0424791 -0.0423112 -0.0421494 -0.0419958 -0.0418516 -0.041717 -0.0415919 -0.041476 -0.0413686 -0.0412684 -0.0411744 -0.0410852 -0.0409994 -0.0409157 -0.0408325 -0.0407481 -0.0406605 -0.0405676 -0.0404695 -0.0403649 -0.0402527 -0.0401236 -0.0399597 -0.0397331 -0.039398 -0.0388839 -0.0380979 -0.0369368 -0.0352789 -0.0329749 -0.0298131 -0.0255646 -0.0198351 -0.0117778 1.0842e-18 
0.02 0.02 0.0199999 0.0199999 0.0199998 0.0199998 0.0199997 0.0199995 0.0199994 0.0199991 0.0199988 0.0199984 0.0199979 0.0199973 0.0199964 0.0199954 0.0199942 0.0199927 0.0199909 0.0199888 0.0199863 0.0199835 0.0199802 0.0199765 0.0199724 0.0199677 0.0199626 0.0199569 0.0199506 0.0199438 0.0199362 0.0199279 0.0199188 0.0199088 0.0198979 0.0198858 0.0198724 0.0198577 0.0198413 0.0198232 0.0198032 0.019781 0.0197566 0.0197296 0.0196999 0.0196674 0.0196318 0.0195931 0.019551 0.0195055 0.0194563 0.0194035 0.0193469 0.0192864 0.0192219 0.0191535 0.0190811 0.0190047 0.0189245 0.0188404 0.0187527 0.0186613 0.0185664 0.0184677 0.0183651 0.0182581 0.0181457 0.0180269 0.0179007 0.0177662 0.0176237 0.0174742 0.0173198 0.0171622 0.0170012 0.016832 0.0166453 0.0164268 0.0161588 0.0158205 0.0153865 0.0148251 0.0140987 0.0131655 0.0119836 0.0105158 0.00873432 0.00662542 0.00419241 0.00145383 -0.00156397 -0.00481995 -0.00823219 -0.0116554 -0.0148079 -0.0176862 -0.0209915 -0.0251224 -0.0295558 -0.0251003 0 0 0 0 0 0 0 0 0 0 0 0 0 0 0 0 0 0 0 0 0 0 0 0 0 0 0 0 0 0 0 0 0 0 0 0 0 0 0 0 0 0 0 0 0 0 0 0 0 0 0 0 0 0 0 0 0 0 0 0 0 0 0 0 0 0 0 0 0 0 0 0 0 0 0 0 0 0 0 0 0 0 0 0 0 0 0 0 0 0 0 0 0 0 0 0 0 0 0 0 0 0 0 0 0 0 0 0 0 0 0 0 0 0 0 0 0 0 0 0 0 0 0 0 0 0 0 0 0 0 0 0 0 0 0 0 0 0 0 0 0 0 0 0 0 0 0 0 0 0 0 0 0 0 0 0 0 0 0 0 0 0 0 0 0 0 0 0 0 0 0 0 0 0 0 0 0 0 0 0 0 0 0 0 0 0 0 0 0 0 0 0 0 0 0 0 0 0 0 0 0 0 0 0 0 0 0 0 0 0 0 0 0 0 -0.075713 -0.0768097 -0.0866254 -0.103581 0 0 0 0 0 0 0 0 0 0 0 0 0 0 0 0 0 0 0 0 0 0 0 0 0 0 0 0 0 0 0 0 0 0 0 0 0 0 0 0 0 0 0 0 0 0 0 0 0 0 0 0 0 0 0 0 0 0 0 0 0 0 0 0 0 0 0 0 0 0 0 0 0 0 0 0 0 0 0 0 0 0 0 0 0 0 0 0 0 0 0 0 0 0 0 0 0 0 0 0 0 0 0 0 0 0 0 0 0 0 0 0 0 0 0 0 0 0 0 0 0 0 0 0 0 0 0 0 0 0 0 0 0 0 0 0 0 0 0 0 0 0 0 0 0 0 0 0 0 0 0 0 0 0 0 0 0 0 0 0 0 0 0 0 0 0 0 0 0 0 0 0 0 0 0 -0.0396231 -0.0425992 -0.0468016 -0.0450708 -0.0463265 -0.0479113 -0.0494043 -0.050616 -0.0512231 -0.0518546 -0.0523989 -0.0525081 -0.0522745 -0.0518144 -0.0512278 -0.0505463 -0.049813 -0.0490685 -0.0483365 -0.0476267 -0.0469406 -0.0462789 -0.0456339 -0.0450002 -0.0443688 -0.0437306 -0.0430733 -0.0423928 -0.0417022 -0.0410272 -0.0403911 -0.0398098 -0.0392935 -0.0388482 -0.038476 -0.0381772 -0.03795 -0.0377918 -0.0376994 -0.0376694 -0.0376986 -0.0377838 -0.0379217 -0.0381089 -0.0383412 -0.0386138 -0.0389211 -0.0392583 -0.0396226 -0.0400087 -0.0404103 -0.0408201 -0.0412303 -0.0416342 -0.0420263 -0.0424041 -0.0427646 -0.0431042 -0.0434193 -0.0437076 -0.0439678 -0.0441994 -0.0444029 -0.0445792 -0.04473 -0.0448578 -0.0449675 -0.0450712 -0.0451991 -0.0454047 -0.0457252 -0.0460966 -0.0463498 -0.0463403 -0.0461362 -0.0458797 -0.0455997 -0.0452635 -0.0448398 -0.0443602 -0.0439219 -0.04362 -0.0434598 -0.043391 -0.0433659 -0.0433516 -0.0433275 -0.0432818 -0.0432073 -0.043102 -0.0429686 -0.042814 -0.0426472 -0.0424767 -0.0423086 -0.0421467 -0.0419932 -0.0418488 -0.0417138 -0.0415882 -0.0414715 -0.0413627 -0.0412607 -0.0411643 -0.0410723 -0.0409833 -0.0408964 -0.0408108 -0.0407254 -0.0406396 -0.0405525 -0.0404626 -0.0403679 -0.040262 -0.0401337 -0.0399647 -0.0397264 -0.0393736 -0.0388406 -0.0380444 -0.0368879 -0.0352537 -0.0329972 -0.0299302 -0.0257918 -0.0201087 -0.0119813 -4.33681e-19 