# vtk DataFile Version 2.0
iteration 1512
ASCII

DATASET STRUCTURED_POINTS
DIMENSIONS 621 64 1
ORIGIN 0 0 0
SPACING 0.00161031 0.00161031 0.00161031

POINT_DATA 39744
SCALARS P float 1
LOOKUP_TABLE default
0 0 0 0 0 0 0 0 0 0 0 0 0 0 0 0 0 0 0 0 0 0 0 0 0 0 0 0 0 0 0 0 0 0 0 0 0 0 0 0 0 0 0 0 0 0 0 0 0 0 0 0 0 0 0 0 0 0 0 0 0 0 0 0 0 0 0 0 0 0 0 0 0 0 0 0 0 0 0 0 0 0 0 0 0 0 0 0 0 0 0 0 0 0 0 0 0 0 0 0 0 0 0 0 0 0 0 0 0 0 0 0 0 0 0 0 0 0 0 0 0 0 0 0 0 0 0 0 0 0 0 0 0 0 0 0 0 0 0 0 0 0 0 0 0 0 0 0 0 0 0 0 0 0 0 0 0 0 0 0 0 0 0 0 0 0 0 0 0 0 0 0 0 0 0 0 0 0 0 0 0 0 0 0 0 0 0 0 0 0 0 0 0 0 0 0 0 0 0 0 0 0 0 0 0 0 0 0 0 0 0 0 0 0 0 0 0 0 0 0 0 0 0 0 0 0 0 0 0 0 0 0 0 0 0 0 0 0 0 0 0 0 0 0 0 0 0 0 0 0 0 0 0 0 0 0 0 0 0 0 0 0 0 0 0 0 0 0 0 0 0 0 0 0 0 0 0 0 0 0 0 0 0 0 0 0 0 0 0 0 0 0 0 0 0 0 0 0 0 0 0 0 0 0 0 0 0 0 0 0 0 0 0 0 0 0 0 0 0 0 0 0 0 0 0 0 0 0 0 0 0 0 0 0 0 0 0 0 0 0 0 0 0 0 0 0 0 0 0 0 0 0 0 0 0 0 0 0 0 0 0 0 0 0 0 0 0 0 0 0 0 0 0 0 0 0 0 0 0 0 0 0 0 0 0 0 0 0 0 0 0 0 0 0 0 0 0 0 0 0 0 0 0 0 0 0 0 0 0 0 0 0 0 0 0 0 0 0 0 0 0 0 0 0 0 0 0 0 0 0 0 0 0 0 0 0 0 0 0 0 0 0 0 0 0 0 0 0 0 0 0 0 0 0 0 0 0 0 0 0 0 0 0 0 0 0 0 0 0 0 0 0 0 0 0 0 0 0 0 0 0 0 0 0 0 0 0 0 0 0 0 0 0 0 0 0 0 0 0 0 0 0 0 0 0 0 0 0 0 0 0 0 0 0 0 0 0 0 0 0 0 0 0 0 0 0 0 0 0 0 0 0 0 0 0 0 0 0 0 0 0 0 0 0 0 0 0 0 0 0 0 0 0 0 0 0 0 0 0 0 0 0 0 0 0 0 0 0 0 0 0 0 0 0 0 0 0 0 0 0 0 0 0 0 0 0 0 0 0 0 0 0 0 0 0 0 0 0 0 0 0 0 0 0 0 0 0 0 0 0 0 0 0 0 0 0 0 0 0 0 0 
0.02 0.02 0.02 0.02 0.02 0.02 0.02 0.02 0.02 0.02 0.02 0.02 0.02 0.02 0.02 0.02 0.02 0.02 0.02 0.02 0.02 0.02 0.02 0.02 0.02 0.02 0.02 0.02 0.02 0.02 0.02 0.02 0.02 0.02 0.02 0.02 0.02 0.02 0.02 0.02 0.02 0.02 0.02 0.02 0.02 0.02 0.02 0.02 0.02 0.02 0.02 0.02 0.02 0.02 0.02 0.02 0.02 0.02 0.02 0.02 0.02 0.02 0.02 0.02 0.02 0.02 0.02 0.02 0.02 0.02 0.02 0.02 0.02 0.02 0.02 0.02 0.02 0.02 0.02 0.02 0.02 0.02 0.02 0.02 0.02 0.02 0.02 0.02 0.02 0.02 0.02 0.02 0.02 0.02 0.02 0.02 0.02 0.02 0.0200001 0.0200001 0.0200001 0.0200001 0.0200001 0.0200001 0.0200001 0.0200001 0.0200001 0.0200001 0.0200001 0.0200001 0.0200002 0.0200002 0.0200002 0.0200002 0.0200002 0.0200002 0.0200002 0.0200003 0.0200003 0.0200003 0.0200003 0.0200004 0.0200004 0.0200004 0.0200004 0.0200004 0.0200005 0.0200005 0.0200005 0.0200005 0.0200006 0.0200006 0.0200006 0.0200006 0.0200007 0.0200007 0.0200007 0.0200007 0.0200007 0.0200007 0.0200007 0.0200007 0.0200006 0.0200006 0.0200006 0.0200005 0.0200004 0.0200003 0.0200002 0.02 0.0199999 0.0199997 0.0199994 0.0199992 0.0199989 0.0199985 0.0199981 0.0199976 0.0199971 0.0199965 0.0199959 0.0199952 0.0199943 0.0199935 0.0199925 0.0199914 0.0199902 0.0199889 0.0199874 0.0199859 0.0199842 0.0199823 0.0199803 0.0199782 0.0199759 0.0199734 0.0199707 0.0199679 0.0199649 0.0199617 0.0199582 0.0199546 0.0199508 0.0199468 0.0199426 0.0199381 0.0199335 0.0199287 0.0199236 0.0199184 0.019913 0.0199074 0.0199017 0.0198958 0.0198897 0.0198835 0.0198772 0.0198708 0.0198643 0.0198578 0.0198512 0.0198445 0.0198378 0.0198311 0.0198245 0.0198179 0.0198113 0.0198048 0.0197985 0.0197922 0.0197861 0.0197802 0.0197745 0.0197691 0.0197639 0.019759 0.0197543 0.0197501 0.0197462 0.0197427 0.0197396 0.0197369 0.0197347 0.0197331 0.0197319 0.0197313 0.0197312 0.0197318 0.019733 0.0197348 0.0197373 0.0197405 0.0197443 0.019749 0.0197543 0.0197605 0.0197674 0.0197752 0.0197838 0.0197932 0.0198035 0.0198146 0.0198267 0.0198396 0.0198534 0.0198682 0.0198838 0.0199003 0.0199178 0.0199361 0.0199553 0.0199754 0.0199963 0.020018 0.0200405 0.0200637 0.0200877 0.0201124 0.0201376 0.0201635 0.0201898 0.0202166 0.0202437 0.0202711 0.0202988 0.0203266 0.0203544 0.0203822 0.0204099 0.0204373 0.0204643 0.020491 0.0205171 0.0205425 0.0205672 0.020591 0.0206139 0.0206357 0.0206564 0.0206758 0.0206939 0.0207106 0.0207258 0.0207395 0.0207515 0.0207618 0.0207704 0.0207772 0.0207822 0.0207854 0.0207867 0.0207861 0.0207837 0.0207794 0.0207732 0.0207653 0.0207555 0.020744 0.0207307 0.0207157 0.0206991 0.020681 0.0206612 0.02064 0.0206174 0.0205933 0.020568 0.0205413 0.0205134 0.0204843 0.020454 0.0204226 0.0203901 0.0203565 0.0203218 0.0202862 0.0202494 0.0202117 0.0201728 0.0201328 0.0200916 0.0200492 0.0200054 0.0199601 0.0199133 0.0198649 0.0198149 0.0197631 0.0197096 0.0196542 0.0195969 0.0195376 0.0194762 0.0194125 0.0193465 0.0192779 0.0192064 0.0191319 0.0190539 0.0189721 0.0188861 0.0187954 0.0186994 0.0185974 0.0184888 0.0183727 0.0182481 0.0181139 0.0179684 0.0178102 0.017637 0.0174464 0.017236 0.0170026 0.0167426 0.0164541 0.0161356 0.0157856 0.0154523 0.0154963 0.0167468 0.0153331 0 0 0 0 0 0 0 0 0 0 0 0 0 0 0 0 0 0 0 0 0 0 0 0 0 0 0 0 0 0 0 0 0 0 0 0 0 0 0 0 0 0 0 0 0 0 0 0 0 0 0 0 0 0 0 0 0 0 0 0 0 0 0 0 0 0 0 0 0 0 0 0 0 0 0 0 0 0 0 0 0 0 0 0 0 0 0 0 0 0 0 0 0 0 0 0 0 0 0 0 0 0 0 0 0 0 0 0 0 0 0 0 0 0 0 0 0 0 0 0 0 0 0 0 0 0 0 0 0 0 0 0 0 0 0 0 0 0 0 0 0 0 0 0 0 0 0 0 0 0 0 0 0 0 0 0 0 0 0 0 0 0 0 0 0 0 0 0 0 0 0 0 0 0 0 0 0 0 0 0 0 0 0 0 0 0 0 0 0 0 0 0 0 0 0 0 0 0 0 0 0 0 0 0 0 0 0 0 0 0 0 0 0 0 0 0 0 0 0 0 0 0 0 0 0 0 0 0 0 0 0 0 0 0 0 0 0 0 0 0 0 0 0 0 0 0 0 0 0 0 0 0 0 0 0 0 0 0 0 
0.02 0.02 0.02 0.02 0.02 0.02 0.02 0.02 0.02 0.02 0.02 0.02 0.02 0.02 0.02 0.02 0.02 0.02 0.02 0.02 0.02 0.02 0.02 0.02 0.02 0.02 0.02 0.02 0.02 0.02 0.02 0.02 0.02 0.02 0.02 0.02 0.02 0.02 0.02 0.02 0.02 0.02 0.02 0.02 0.02 0.02 0.02 0.02 0.02 0.02 0.02 0.02 0.02 0.02 0.02 0.02 0.02 0.02 0.02 0.02 0.02 0.02 0.02 0.02 0.02 0.02 0.02 0.02 0.02 0.02 0.02 0.02 0.02 0.02 0.02 0.02 0.02 0.02 0.02 0.02 0.02 0.02 0.02 0.02 0.02 0.02 0.02 0.02 0.02 0.02 0.02 0.02 0.02 0.02 0.02 0.02 0.02 0.02 0.0200001 0.0200001 0.0200001 0.0200001 0.0200001 0.0200001 0.0200001 0.0200001 0.0200001 0.0200001 0.0200001 0.0200001 0.0200002 0.0200002 0.0200002 0.0200002 0.0200002 0.0200002 0.0200002 0.0200003 0.0200003 0.0200003 0.0200003 0.0200003 0.0200004 0.0200004 0.0200004 0.0200004 0.0200005 0.0200005 0.0200005 0.0200005 0.0200006 0.0200006 0.0200006 0.0200006 0.0200006 0.0200007 0.0200007 0.0200007 0.0200007 0.0200007 0.0200007 0.0200006 0.0200006 0.0200006 0.0200005 0.0200005 0.0200004 0.0200003 0.0200002 0.02 0.0199998 0.0199996 0.0199994 0.0199991 0.0199988 0.0199985 0.019998 0.0199976 0.0199971 0.0199965 0.0199958 0.0199951 0.0199943 0.0199934 0.0199924 0.0199913 0.0199902 0.0199888 0.0199874 0.0199859 0.0199842 0.0199823 0.0199804 0.0199782 0.0199759 0.0199734 0.0199708 0.019968 0.0199649 0.0199617 0.0199583 0.0199547 0.0199509 0.0199469 0.0199427 0.0199383 0.0199337 0.0199289 0.0199239 0.0199187 0.0199133 0.0199077 0.019902 0.0198961 0.01989 0.0198839 0.0198776 0.0198712 0.0198647 0.0198582 0.0198516 0.0198449 0.0198383 0.0198316 0.0198249 0.0198183 0.0198118 0.0198053 0.0197989 0.0197927 0.0197866 0.0197807 0.019775 0.0197695 0.0197643 0.0197593 0.0197547 0.0197504 0.0197465 0.0197429 0.0197398 0.0197371 0.0197349 0.0197332 0.019732 0.0197313 0.0197312 0.0197317 0.0197328 0.0197345 0.0197369 0.01974 0.0197438 0.0197483 0.0197536 0.0197596 0.0197664 0.0197741 0.0197825 0.0197918 0.019802 0.019813 0.0198249 0.0198377 0.0198513 0.0198659 0.0198814 0.0198977 0.019915 0.0199331 0.0199521 0.019972 0.0199927 0.0200142 0.0200364 0.0200595 0.0200832 0.0201076 0.0201327 0.0201583 0.0201844 0.0202109 0.0202378 0.020265 0.0202924 0.02032 0.0203476 0.0203751 0.0204025 0.0204297 0.0204565 0.0204829 0.0205088 0.020534 0.0205585 0.0205821 0.0206048 0.0206265 0.020647 0.0206662 0.0206842 0.0207007 0.0207158 0.0207293 0.0207412 0.0207514 0.0207599 0.0207667 0.0207716 0.0207747 0.020776 0.0207754 0.020773 0.0207687 0.0207626 0.0207547 0.020745 0.0207335 0.0207204 0.0207056 0.0206891 0.0206711 0.0206515 0.0206305 0.0206081 0.0205843 0.0205591 0.0205327 0.0205051 0.0204763 0.0204463 0.0204151 0.0203829 0.0203497 0.0203153 0.02028 0.0202436 0.0202061 0.0201676 0.0201279 0.020087 0.0200449 0.0200014 0.0199564 0.01991 0.0198619 0.0198121 0.0197607 0.0197074 0.0196523 0.0195952 0.0195361 0.0194749 0.0194114 0.0193455 0.0192769 0.0192055 0.019131 0.0190531 0.0189713 0.0188853 0.0187946 0.0186986 0.0185967 0.0184881 0.0183721 0.0182475 0.0181133 0.0179679 0.0178097 0.0176365 0.017446 0.017236 0.0170033 0.0167448 0.0164614 0.016161 0.0158318 0.0155635 0.0154633 0.0156922 0.0152293 0.0145368 0.0138381 0.0131307 0.0123848 0.011593 0.0106859 0.00961658 0.00844037 0.00739709 0.00632163 0.00629085 0 0 0 0 0 0 0 0 0 0 0 0 0 0 0 0 0 0 0 0 0 0 0 0 0 0 0 0 0 0 0 0 0 0 0 0 0 0 0 0 0 0 0 0 0 0 0 0 0 0 0 0 0 0 0 0 0 0 0 0 0 0 0 0 0 0 0 0 0 0 0 0 0 0 0 0 0 0 0 0 0 0 0 0 0 0 0 0 0 0 0 0 0 0 0 0 0 0 0 0 0 0 0 0 0 0 0 0 0 0 0 0 0 0 0 0 0 0 0 0 0 0 0 0 0 0 0 0 0 0 0 0 0 0 0 0 0 0 0 0 0 0 0 0 0 0 0 0 0 0 0 0 0 0 0 0 0 0 0 0 0 0 0 0 0 0 0 0 0 0 0 0 0 0 0 0 0 0 0 0 0 0 0 0 0 0 0 0 0 0 0 0 0 0 0 0 0 0 0 0 0 0 0 0 0 0 0 0 0 0 0 0 0 0 0 0 0 0 0 0 0 0 0 0 0 0 0 0 0 0 0 0 0 0 0 0 0 0 0 0 0 0 0 0 0 0 0 0 
0.02 0.02 0.02 0.02 0.02 0.02 0.02 0.02 0.02 0.02 0.02 0.02 0.02 0.02 0.02 0.02 0.02 0.02 0.02 0.02 0.02 0.02 0.02 0.02 0.02 0.02 0.02 0.02 0.02 0.02 0.02 0.02 0.02 0.02 0.02 0.02 0.02 0.02 0.02 0.02 0.02 0.02 0.02 0.02 0.02 0.02 0.02 0.02 0.02 0.02 0.02 0.02 0.02 0.02 0.02 0.02 0.02 0.02 0.02 0.02 0.02 0.02 0.02 0.02 0.02 0.02 0.02 0.02 0.02 0.02 0.02 0.02 0.02 0.02 0.02 0.02 0.02 0.02 0.02 0.02 0.02 0.02 0.02 0.02 0.02 0.02 0.02 0.02 0.02 0.02 0.02 0.02 0.02 0.02 0.02 0.02 0.02 0.02 0.0200001 0.0200001 0.0200001 0.0200001 0.0200001 0.0200001 0.0200001 0.0200001 0.0200001 0.0200001 0.0200001 0.0200001 0.0200002 0.0200002 0.0200002 0.0200002 0.0200002 0.0200002 0.0200002 0.0200003 0.0200003 0.0200003 0.0200003 0.0200003 0.0200004 0.0200004 0.0200004 0.0200004 0.0200004 0.0200005 0.0200005 0.0200005 0.0200005 0.0200006 0.0200006 0.0200006 0.0200006 0.0200006 0.0200006 0.0200006 0.0200006 0.0200006 0.0200006 0.0200006 0.0200006 0.0200005 0.0200005 0.0200004 0.0200003 0.0200002 0.0200001 0.0199999 0.0199998 0.0199996 0.0199993 0.019999 0.0199987 0.0199984 0.019998 0.0199975 0.019997 0.0199964 0.0199957 0.019995 0.0199942 0.0199933 0.0199923 0.0199913 0.0199901 0.0199888 0.0199873 0.0199858 0.0199841 0.0199823 0.0199803 0.0199781 0.0199758 0.0199734 0.0199707 0.0199679 0.0199649 0.0199617 0.0199583 0.0199547 0.019951 0.019947 0.0199428 0.0199384 0.0199338 0.019929 0.019924 0.0199188 0.0199134 0.0199079 0.0199022 0.0198963 0.0198903 0.0198842 0.0198779 0.0198715 0.0198651 0.0198585 0.019852 0.0198453 0.0198387 0.0198321 0.0198254 0.0198188 0.0198123 0.0198058 0.0197995 0.0197932 0.0197872 0.0197813 0.0197756 0.0197701 0.0197649 0.0197599 0.0197553 0.019751 0.019747 0.0197435 0.0197403 0.0197376 0.0197353 0.0197336 0.0197323 0.0197316 0.0197314 0.0197318 0.0197329 0.0197345 0.0197369 0.0197399 0.0197436 0.019748 0.0197531 0.0197591 0.0197658 0.0197733 0.0197816 0.0197907 0.0198007 0.0198116 0.0198233 0.0198358 0.0198493 0.0198637 0.0198789 0.019895 0.019912 0.0199299 0.0199486 0.0199682 0.0199886 0.0200098 0.0200318 0.0200545 0.0200779 0.0201019 0.0201266 0.0201518 0.0201775 0.0202037 0.0202302 0.0202569 0.0202839 0.020311 0.0203382 0.0203653 0.0203923 0.020419 0.0204453 0.0204713 0.0204967 0.0205214 0.0205455 0.0205686 0.0205908 0.020612 0.0206321 0.0206509 0.0206684 0.0206845 0.0206992 0.0207123 0.0207239 0.0207337 0.0207419 0.0207483 0.020753 0.0207558 0.0207569 0.0207561 0.0207535 0.0207491 0.0207429 0.0207349 0.0207252 0.0207138 0.0207007 0.020686 0.0206696 0.0206518 0.0206324 0.0206117 0.0205895 0.020566 0.0205412 0.0205152 0.020488 0.0204596 0.02043 0.0203994 0.0203677 0.020335 0.0203012 0.0202664 0.0202305 0.0201937 0.0201557 0.0201166 0.0200764 0.0200348 0.0199919 0.0199475 0.0199017 0.0198542 0.019805 0.0197541 0.0197014 0.0196467 0.0195901 0.0195315 0.0194707 0.0194076 0.019342 0.0192737 0.0192026 0.0191283 0.0190505 0.0189689 0.018883 0.0187923 0.0186964 0.0185946 0.0184861 0.0183701 0.0182456 0.0181114 0.0179661 0.017808 0.017635 0.0174448 0.0172353 0.0170047 0.0167503 0.0164774 0.0162029 0.0159209 0.0156631 0.0155753 0.0154677 0.0150312 0.0144841 0.0138048 0.0131224 0.0123663 0.0115539 0.010635 0.00960111 0.00851616 0.00749147 0.00624228 0.00533383 0.00392999 0.00228459 0.000638921 -0.00124072 -0.00274448 0 0 0 0 0 0 0 0 0 0 0 0 0 0 0 0 0 0 0 0 0 0 0 0 0 0 0 0 0 0 0 0 0 0 0 0 0 0 0 0 0 0 0 0 0 0 0 0 0 0 0 0 0 0 0 0 0 0 0 0 0 0 0 0 0 0 0 0 0 0 0 0 0 0 0 0 0 0 0 0 0 0 0 0 0 0 0 0 0 0 0 0 0 0 0 0 0 0 0 0 0 0 0 0 0 0 0 0 0 0 0 0 0 0 0 0 0 0 0 0 0 0 0 0 0 0 0 0 0 0 0 0 0 0 0 0 0 0 0 0 0 0 0 0 0 0 0 0 0 0 0 0 0 0 0 0 0 0 0 0 0 0 0 0 0 0 0 0 0 0 0 0 0 0 0 0 0 0 0 0 0 0 0 0 0 0 0 0 0 0 0 0 0 0 0 0 0 0 0 0 0 0 0 0 0 0 0 0 0 0 0 0 0 0 0 0 0 0 0 0 0 0 0 0 0 0 0 0 0 0 0 0 0 0 0 0 0 0 0 0 0 0 0 
0.02 0.02 0.02 0.02 0.02 0.02 0.02 0.02 0.02 0.02 0.02 0.02 0.02 0.02 0.02 0.02 0.02 0.02 0.02 0.02 0.02 0.02 0.02 0.02 0.02 0.02 0.02 0.02 0.02 0.02 0.02 0.02 0.02 0.02 0.02 0.02 0.02 0.02 0.02 0.02 0.02 0.02 0.02 0.02 0.02 0.02 0.02 0.02 0.02 0.02 0.02 0.02 0.02 0.02 0.02 0.02 0.02 0.02 0.02 0.02 0.02 0.02 0.02 0.02 0.02 0.02 0.02 0.02 0.02 0.02 0.02 0.02 0.02 0.02 0.02 0.02 0.02 0.02 0.02 0.02 0.02 0.02 0.02 0.02 0.02 0.02 0.02 0.02 0.02 0.02 0.02 0.02 0.02 0.02 0.02 0.02 0.02 0.02 0.0200001 0.0200001 0.0200001 0.0200001 0.0200001 0.0200001 0.0200001 0.0200001 0.0200001 0.0200001 0.0200001 0.0200001 0.0200001 0.0200002 0.0200002 0.0200002 0.0200002 0.0200002 0.0200002 0.0200002 0.0200003 0.0200003 0.0200003 0.0200003 0.0200003 0.0200004 0.0200004 0.0200004 0.0200004 0.0200004 0.0200005 0.0200005 0.0200005 0.0200005 0.0200005 0.0200006 0.0200006 0.0200006 0.0200006 0.0200006 0.0200006 0.0200006 0.0200006 0.0200005 0.0200005 0.0200005 0.0200004 0.0200003 0.0200002 0.0200001 0.02 0.0199998 0.0199997 0.0199995 0.0199992 0.0199989 0.0199986 0.0199983 0.0199978 0.0199974 0.0199969 0.0199963 0.0199956 0.0199949 0.0199941 0.0199932 0.0199922 0.0199911 0.0199899 0.0199886 0.0199872 0.0199856 0.019984 0.0199821 0.0199802 0.019978 0.0199758 0.0199733 0.0199707 0.0199679 0.0199649 0.0199617 0.0199583 0.0199548 0.019951 0.019947 0.0199429 0.0199385 0.0199339 0.0199291 0.0199242 0.019919 0.0199137 0.0199082 0.0199025 0.0198967 0.0198907 0.0198846 0.0198783 0.019872 0.0198656 0.0198591 0.0198525 0.019846 0.0198394 0.0198327 0.0198261 0.0198196 0.0198131 0.0198066 0.0198003 0.0197941 0.019788 0.0197822 0.0197765 0.019771 0.0197658 0.0197608 0.0197562 0.0197519 0.0197479 0.0197443 0.0197411 0.0197384 0.0197361 0.0197343 0.019733 0.0197322 0.0197319 0.0197323 0.0197332 0.0197348 0.019737 0.0197399 0.0197435 0.0197478 0.0197528 0.0197586 0.0197651 0.0197725 0.0197806 0.0197895 0.0197993 0.0198099 0.0198214 0.0198337 0.0198469 0.019861 0.019876 0.0198918 0.0199084 0.019926 0.0199443 0.0199635 0.0199835 0.0200043 0.0200258 0.0200481 0.020071 0.0200946 0.0201187 0.0201434 0.0201685 0.0201941 0.02022 0.0202462 0.0202726 0.0202991 0.0203256 0.020352 0.0203783 0.0204044 0.0204301 0.0204554 0.0204801 0.0205042 0.0205275 0.02055 0.0205715 0.020592 0.0206114 0.0206296 0.0206464 0.0206619 0.020676 0.0206885 0.0206994 0.0207088 0.0207164 0.0207224 0.0207266 0.0207291 0.0207297 0.0207286 0.0207258 0.0207212 0.0207148 0.0207067 0.0206969 0.0206855 0.0206724 0.0206578 0.0206416 0.020624 0.0206049 0.0205845 0.0205627 0.0205396 0.0205153 0.0204898 0.0204631 0.0204353 0.0204064 0.0203765 0.0203455 0.0203134 0.0202804 0.0202464 0.0202114 0.0201753 0.0201382 0.0201 0.0200605 0.0200198 0.0199778 0.0199343 0.0198893 0.0198426 0.0197943 0.0197442 0.0196922 0.0196384 0.0195825 0.0195245 0.0194643 0.0194017 0.0193367 0.0192689 0.0191982 0.0191242 0.0190468 0.0189654 0.0188797 0.0187893 0.0186936 0.0185919 0.0184835 0.0183676 0.0182433 0.0181093 0.0179642 0.0178064 0.0176338 0.0174443 0.0172364 0.0170102 0.0167657 0.0165088 0.01626 0.0160257 0.0157869 0.0156058 0.0153443 0.0149456 0.0144273 0.0137967 0.01313 0.012384 0.0115652 0.0106548 0.00965806 0.00862644 0.00759006 0.00652775 0.00525953 0.00382557 0.00230804 0.000674623 -0.000970167 -0.00295491 -0.00516433 -0.00796933 -0.0111407 0 0 0 0 0 0 0 0 0 0 0 0 0 0 0 0 0 0 0 0 0 0 0 0 0 0 0 0 0 0 0 0 0 0 0 0 0 0 0 0 0 0 0 0 0 0 0 0 0 0 0 0 0 0 0 0 0 0 0 0 0 0 0 0 0 0 0 0 0 0 0 0 0 0 0 0 0 0 0 0 0 0 0 0 0 0 0 0 0 0 0 0 0 0 0 0 0 0 0 0 0 0 0 0 0 0 0 0 0 0 0 0 0 0 0 0 0 0 0 0 0 0 0 0 0 0 0 0 0 0 0 0 0 0 0 0 0 0 0 0 0 0 0 0 0 0 0 0 0 0 0 0 0 0 0 0 0 0 0 0 0 0 0 0 0 0 0 0 0 0 0 0 0 0 0 0 0 0 0 0 0 0 0 0 0 0 0 0 0 0 0 0 0 0 0 0 0 0 0 0 0 0 0 0 0 0 0 0 0 0 0 0 0 0 0 0 0 0 0 0 0 0 0 0 0 0 0 0 0 0 0 0 0 0 0 0 0 0 0 -1.73472e-18 
0.02 0.02 0.02 0.02 0.02 0.02 0.02 0.02 0.02 0.02 0.02 0.02 0.02 0.02 0.02 0.02 0.02 0.02 0.02 0.02 0.02 0.02 0.02 0.02 0.02 0.02 0.02 0.02 0.02 0.02 0.02 0.02 0.02 0.02 0.02 0.02 0.02 0.02 0.02 0.02 0.02 0.02 0.02 0.02 0.02 0.02 0.02 0.02 0.02 0.02 0.02 0.02 0.02 0.02 0.02 0.02 0.02 0.02 0.02 0.02 0.02 0.02 0.02 0.02 0.02 0.02 0.02 0.02 0.02 0.02 0.02 0.02 0.02 0.02 0.02 0.02 0.02 0.02 0.02 0.02 0.02 0.02 0.02 0.02 0.02 0.02 0.02 0.02 0.02 0.02 0.02 0.02 0.02 0.02 0.02 0.02 0.02 0.02 0.02 0.0200001 0.0200001 0.0200001 0.0200001 0.0200001 0.0200001 0.0200001 0.0200001 0.0200001 0.0200001 0.0200001 0.0200001 0.0200001 0.0200002 0.0200002 0.0200002 0.0200002 0.0200002 0.0200002 0.0200002 0.0200003 0.0200003 0.0200003 0.0200003 0.0200003 0.0200004 0.0200004 0.0200004 0.0200004 0.0200004 0.0200005 0.0200005 0.0200005 0.0200005 0.0200005 0.0200005 0.0200005 0.0200005 0.0200005 0.0200005 0.0200005 0.0200005 0.0200005 0.0200004 0.0200004 0.0200003 0.0200002 0.0200001 0.02 0.0199999 0.0199997 0.0199995 0.0199993 0.0199991 0.0199988 0.0199985 0.0199981 0.0199977 0.0199972 0.0199967 0.0199961 0.0199955 0.0199947 0.0199939 0.019993 0.019992 0.019991 0.0199898 0.0199885 0.019987 0.0199855 0.0199838 0.019982 0.01998 0.0199779 0.0199757 0.0199732 0.0199706 0.0199678 0.0199648 0.0199617 0.0199583 0.0199548 0.0199511 0.0199471 0.019943 0.0199387 0.0199341 0.0199294 0.0199245 0.0199194 0.0199141 0.0199086 0.019903 0.0198972 0.0198912 0.0198852 0.019879 0.0198727 0.0198663 0.0198599 0.0198534 0.0198468 0.0198403 0.0198337 0.0198272 0.0198206 0.0198142 0.0198078 0.0198015 0.0197953 0.0197893 0.0197834 0.0197777 0.0197723 0.0197671 0.0197621 0.0197575 0.0197532 0.0197492 0.0197456 0.0197424 0.0197396 0.0197372 0.0197353 0.019734 0.0197331 0.0197328 0.019733 0.0197339 0.0197353 0.0197374 0.0197402 0.0197436 0.0197477 0.0197526 0.0197582 0.0197645 0.0197716 0.0197795 0.0197882 0.0197977 0.019808 0.0198192 0.0198312 0.0198441 0.0198578 0.0198724 0.0198878 0.019904 0.0199211 0.019939 0.0199577 0.0199772 0.0199974 0.0200184 0.0200401 0.0200624 0.0200853 0.0201088 0.0201328 0.0201573 0.0201821 0.0202073 0.0202327 0.0202583 0.020284 0.0203097 0.0203353 0.0203607 0.0203859 0.0204107 0.0204351 0.0204589 0.0204821 0.0205046 0.0205261 0.0205468 0.0205664 0.0205849 0.0206022 0.0206183 0.0206329 0.0206462 0.0206579 0.0206682 0.0206768 0.0206838 0.0206891 0.0206927 0.0206947 0.0206949 0.0206934 0.0206902 0.0206853 0.0206787 0.0206704 0.0206606 0.0206491 0.0206361 0.0206216 0.0206056 0.0205883 0.0205695 0.0205495 0.0205282 0.0205056 0.0204819 0.0204571 0.0204311 0.0204041 0.020376 0.0203469 0.0203168 0.0202857 0.0202536 0.0202206 0.0201866 0.0201516 0.0201155 0.0200784 0.0200401 0.0200005 0.0199595 0.0199171 0.0198732 0.0198276 0.0197804 0.0197313 0.0196803 0.0196274 0.0195725 0.0195154 0.019456 0.0193942 0.0193298 0.0192627 0.0191925 0.0191191 0.0190421 0.0189612 0.0188759 0.0187858 0.0186903 0.0185889 0.0184808 0.0183652 0.0182411 0.0181073 0.0179626 0.0178052 0.0176335 0.0174456 0.017241 0.0170216 0.0167915 0.0165555 0.0163276 0.0161149 0.0158923 0.0156146 0.0153218 0.0149084 0.0144004 0.0138113 0.013157 0.0124256 0.0116147 0.0107265 0.00976569 0.00876181 0.00771344 0.00659007 0.0053174 0.00390893 0.00238634 0.000745797 -0.00103461 -0.00301659 -0.0050762 -0.00769981 -0.0107386 -0.0144053 -0.0193038 -0.0245145 0 0 0 0 0 0 0 0 0 0 0 0 0 0 0 0 0 0 0 0 0 0 0 0 0 0 0 0 0 0 0 0 0 0 0 0 0 0 0 0 0 0 0 0 0 0 0 0 0 0 0 0 0 0 0 0 0 0 0 0 0 0 0 0 0 0 0 0 0 0 0 0 0 0 0 0 0 0 0 0 0 0 0 0 0 0 0 0 0 0 0 0 0 0 0 0 0 0 0 0 0 0 0 0 0 0 0 0 0 0 0 0 0 0 0 0 0 0 0 0 0 0 0 0 0 0 0 0 0 0 0 0 0 0 0 0 0 0 0 0 0 0 0 0 0 0 0 0 0 0 0 0 0 0 0 0 0 0 0 0 0 0 0 0 0 0 0 0 0 0 0 0 0 0 0 0 0 0 0 0 0 0 0 0 0 0 0 0 0 0 0 0 0 0 0 0 0 0 0 0 0 0 0 0 0 0 0 0 0 0 0 0 0 0 0 0 0 0 0 0 0 0 0 0 0 0 0 0 0 0 0 0 0 0 0 -0.0050185 4.33681e-19 
0.02 0.02 0.02 0.02 0.02 0.02 0.02 0.02 0.02 0.02 0.02 0.02 0.02 0.02 0.02 0.02 0.02 0.02 0.02 0.02 0.02 0.02 0.02 0.02 0.02 0.02 0.02 0.02 0.02 0.02 0.02 0.02 0.02 0.02 0.02 0.02 0.02 0.02 0.02 0.02 0.02 0.02 0.02 0.02 0.02 0.02 0.02 0.02 0.02 0.02 0.02 0.02 0.02 0.02 0.02 0.02 0.02 0.02 0.02 0.02 0.02 0.02 0.02 0.02 0.02 0.02 0.02 0.02 0.02 0.02 0.02 0.02 0.02 0.02 0.02 0.02 0.02 0.02 0.02 0.02 0.02 0.02 0.02 0.02 0.02 0.02 0.02 0.02 0.02 0.02 0.02 0.02 0.02 0.02 0.02 0.02 0.02 0.02 0.02 0.02 0.0200001 0.0200001 0.0200001 0.0200001 0.0200001 0.0200001 0.0200001 0.0200001 0.0200001 0.0200001 0.0200001 0.0200001 0.0200002 0.0200002 0.0200002 0.0200002 0.0200002 0.0200002 0.0200002 0.0200002 0.0200003 0.0200003 0.0200003 0.0200003 0.0200003 0.0200003 0.0200004 0.0200004 0.0200004 0.0200004 0.0200004 0.0200004 0.0200004 0.0200005 0.0200005 0.0200005 0.0200005 0.0200005 0.0200004 0.0200004 0.0200004 0.0200004 0.0200003 0.0200003 0.0200002 0.0200001 0.02 0.0199999 0.0199998 0.0199996 0.0199994 0.0199992 0.0199989 0.0199986 0.0199983 0.0199979 0.0199975 0.0199971 0.0199965 0.0199959 0.0199953 0.0199945 0.0199937 0.0199928 0.0199918 0.0199908 0.0199896 0.0199883 0.0199869 0.0199853 0.0199837 0.0199819 0.0199799 0.0199778 0.0199756 0.0199731 0.0199705 0.0199678 0.0199648 0.0199617 0.0199584 0.0199549 0.0199512 0.0199473 0.0199432 0.0199389 0.0199344 0.0199298 0.0199249 0.0199198 0.0199146 0.0199092 0.0199036 0.0198979 0.019892 0.019886 0.0198799 0.0198736 0.0198673 0.0198609 0.0198545 0.019848 0.0198415 0.019835 0.0198285 0.019822 0.0198156 0.0198093 0.019803 0.0197969 0.0197909 0.0197851 0.0197794 0.019774 0.0197688 0.0197638 0.0197592 0.0197549 0.0197509 0.0197472 0.019744 0.0197411 0.0197387 0.0197368 0.0197354 0.0197344 0.019734 0.0197341 0.0197348 0.0197362 0.0197381 0.0197407 0.0197439 0.0197478 0.0197525 0.0197578 0.0197639 0.0197707 0.0197783 0.0197867 0.0197959 0.0198059 0.0198167 0.0198283 0.0198408 0.019854 0.0198681 0.0198831 0.0198988 0.0199154 0.0199327 0.0199508 0.0199697 0.0199893 0.0200095 0.0200305 0.0200521 0.0200742 0.0200969 0.0201201 0.0201437 0.0201677 0.0201919 0.0202164 0.020241 0.0202657 0.0202904 0.020315 0.0203394 0.0203636 0.0203873 0.0204107 0.0204334 0.0204555 0.0204768 0.0204973 0.0205169 0.0205355 0.0205529 0.0205692 0.0205842 0.0205979 0.0206101 0.020621 0.0206303 0.0206381 0.0206443 0.0206489 0.0206518 0.0206531 0.0206528 0.0206508 0.0206472 0.0206419 0.0206351 0.0206267 0.0206167 0.0206052 0.0205923 0.020578 0.0205623 0.0205452 0.0205269 0.0205073 0.0204866 0.0204647 0.0204417 0.0204177 0.0203926 0.0203664 0.0203393 0.0203113 0.0202822 0.0202523 0.0202214 0.0201895 0.0201568 0.020123 0.0200882 0.0200524 0.0200153 0.0199771 0.0199374 0.0198964 0.0198538 0.0198095 0.0197635 0.0197157 0.019666 0.0196143 0.0195604 0.0195044 0.019446 0.0193851 0.0193216 0.0192553 0.0191859 0.0191131 0.0190367 0.0189563 0.0188715 0.0187818 0.0186868 0.0185857 0.018478 0.0183627 0.018239 0.0181057 0.0179614 0.0178049 0.0176346 0.0174496 0.0172502 0.0170399 0.0168246 0.0166093 0.0163957 0.0161868 0.015961 0.0156924 0.0153424 0.0149128 0.014414 0.0138468 0.0132067 0.0124911 0.0116988 0.0108378 0.00991294 0.00892337 0.00786956 0.00671291 0.00543784 0.00403745 0.00251337 0.000850258 -0.000965237 -0.00300796 -0.00521276 -0.00765791 -0.0107145 -0.0140833 -0.0172696 -0.0232646 -0.0303658 -0.0377147 0 0 0 0 0 0 0 0 0 0 0 0 0 0 0 0 0 0 0 0 0 0 0 0 0 0 0 0 0 0 0 0 0 0 0 0 0 0 0 0 0 0 0 0 0 0 0 0 0 0 0 0 0 0 0 0 0 0 0 0 0 0 0 0 0 0 0 0 0 0 0 0 0 0 0 0 0 0 0 0 0 0 0 0 0 0 0 0 0 0 0 0 0 0 0 0 0 0 0 0 0 0 0 0 0 0 0 0 0 0 0 0 0 0 0 0 0 0 0 0 0 0 0 0 0 0 0 0 0 0 0 0 0 0 0 0 0 0 0 0 0 0 0 0 0 0 0 0 0 0 0 0 0 0 0 0 0 0 0 0 0 0 0 0 0 0 0 0 0 0 0 0 0 0 0 0 0 0 0 0 0 0 0 0 0 0 0 0 0 0 0 0 0 0 0 0 0 0 0 0 0 0 0 0 0 0 0 0 0 0 0 0 0 0 0 0 0 0 0 0 0 0 0 0 0 0 0 0 0 0 0 0 -0.0174391 -0.00895245 -4.33681e-19 
0.02 0.02 0.02 0.02 0.02 0.02 0.02 0.02 0.02 0.02 0.02 0.02 0.02 0.02 0.02 0.02 0.02 0.02 0.02 0.02 0.02 0.02 0.02 0.02 0.02 0.02 0.02 0.02 0.02 0.02 0.02 0.02 0.02 0.02 0.02 0.02 0.02 0.02 0.02 0.02 0.02 0.02 0.02 0.02 0.02 0.02 0.02 0.02 0.02 0.02 0.02 0.02 0.02 0.02 0.02 0.02 0.02 0.02 0.02 0.02 0.02 0.02 0.02 0.02 0.02 0.02 0.02 0.02 0.02 0.02 0.02 0.02 0.02 0.02 0.02 0.02 0.02 0.02 0.02 0.02 0.02 0.02 0.02 0.02 0.02 0.02 0.02 0.02 0.02 0.02 0.02 0.02 0.02 0.02 0.02 0.02 0.02 0.02 0.02 0.02 0.0200001 0.0200001 0.0200001 0.0200001 0.0200001 0.0200001 0.0200001 0.0200001 0.0200001 0.0200001 0.0200001 0.0200001 0.0200001 0.0200001 0.0200002 0.0200002 0.0200002 0.0200002 0.0200002 0.0200002 0.0200002 0.0200002 0.0200003 0.0200003 0.0200003 0.0200003 0.0200003 0.0200003 0.0200003 0.0200004 0.0200004 0.0200004 0.0200004 0.0200004 0.0200004 0.0200004 0.0200004 0.0200004 0.0200004 0.0200003 0.0200003 0.0200003 0.0200002 0.0200002 0.0200001 0.02 0.0199999 0.0199998 0.0199996 0.0199994 0.0199992 0.019999 0.0199988 0.0199985 0.0199981 0.0199978 0.0199973 0.0199969 0.0199963 0.0199957 0.0199951 0.0199943 0.0199935 0.0199926 0.0199916 0.0199906 0.0199894 0.0199881 0.0199867 0.0199852 0.0199835 0.0199817 0.0199798 0.0199777 0.0199755 0.0199731 0.0199705 0.0199678 0.0199648 0.0199618 0.0199585 0.019955 0.0199514 0.0199475 0.0199435 0.0199393 0.0199348 0.0199302 0.0199254 0.0199204 0.0199153 0.0199099 0.0199044 0.0198988 0.019893 0.019887 0.019881 0.0198748 0.0198686 0.0198623 0.0198559 0.0198495 0.019843 0.0198366 0.0198302 0.0198238 0.0198174 0.0198111 0.0198049 0.0197989 0.0197929 0.0197871 0.0197815 0.0197761 0.0197709 0.019766 0.0197614 0.019757 0.019753 0.0197493 0.0197461 0.0197432 0.0197407 0.0197387 0.0197371 0.0197361 0.0197355 0.0197355 0.0197361 0.0197373 0.019739 0.0197414 0.0197444 0.0197481 0.0197524 0.0197575 0.0197633 0.0197698 0.0197771 0.0197851 0.0197939 0.0198035 0.0198139 0.019825 0.019837 0.0198497 0.0198633 0.0198777 0.0198928 0.0199087 0.0199254 0.0199428 0.0199609 0.0199798 0.0199993 0.0200194 0.0200401 0.0200614 0.0200831 0.0201053 0.0201279 0.0201509 0.0201741 0.0201975 0.020221 0.0202445 0.0202681 0.0202915 0.0203147 0.0203376 0.0203601 0.0203822 0.0204036 0.0204245 0.0204445 0.0204638 0.0204821 0.0204994 0.0205156 0.0205306 0.0205445 0.020557 0.0205682 0.0205779 0.0205862 0.020593 0.0205983 0.0206021 0.0206042 0.0206049 0.0206039 0.0206014 0.0205973 0.0205917 0.0205846 0.020576 0.0205659 0.0205545 0.0205417 0.0205276 0.0205122 0.0204955 0.0204777 0.0204588 0.0204387 0.0204176 0.0203955 0.0203723 0.0203482 0.0203232 0.0202972 0.0202703 0.0202425 0.0202138 0.0201843 0.0201538 0.0201224 0.0200901 0.0200568 0.0200224 0.0199869 0.0199501 0.019912 0.0198725 0.0198314 0.0197886 0.0197441 0.0196977 0.0196494 0.019599 0.0195465 0.0194917 0.0194345 0.0193747 0.0193122 0.0192468 0.0191782 0.0191063 0.0190306 0.0189509 0.0188667 0.0187776 0.0186831 0.0185825 0.0184752 0.0183604 0.0182372 0.0181044 0.0179609 0.0178056 0.0176376 0.0174568 0.0172644 0.0170644 0.0168624 0.0166626 0.0164607 0.0162465 0.016007 0.0157157 0.0153618 0.0149414 0.0144544 0.0139005 0.0132764 0.0125802 0.0118124 0.0109778 0.0100802 0.00910832 0.00804845 0.00689021 0.00561438 0.00421479 0.00268343 0.00100376 -0.000852469 -0.00293635 -0.0052662 -0.00787144 -0.0108438 -0.0142142 -0.0181159 -0.0227168 -0.0269629 -0.0349187 -0.0445753 -0.0522067 0 0 0 0 0 0 0 0 0 0 0 0 0 0 0 0 0 0 0 0 0 0 0 0 0 0 0 0 0 0 0 0 0 0 0 0 0 0 0 0 0 0 0 0 0 0 0 0 0 0 0 0 0 0 0 0 0 0 0 0 0 0 0 0 0 0 0 0 0 0 0 0 0 0 0 0 0 0 0 0 0 0 0 0 0 0 0 0 0 0 0 0 0 0 0 0 0 0 0 0 0 0 0 0 0 0 0 0 0 0 0 0 0 0 0 0 0 0 0 0 0 0 0 0 0 0 0 0 0 0 0 0 0 0 0 0 0 0 0 0 0 0 0 0 0 0 0 0 0 0 0 0 0 0 0 0 0 0 0 0 0 0 0 0 0 0 0 0 0 0 0 0 0 0 0 0 0 0 0 0 0 0 0 0 0 0 0 0 0 0 0 0 0 0 0 0 0 0 0 0 0 0 0 0 0 0 0 0 0 0 0 0 0 0 0 0 0 0 0 0 0 0 0 0 0 0 0 0 -0.0364482 -0.030153 -0.0215962 -0.0118066 -8.67362e-19 