# vtk DataFile Version 2.0
iteration 297
ASCII

DATASET STRUCTURED_POINTS
DIMENSIONS 621 64 1
ORIGIN 0 0 0
SPACING 0.00161031 0.00161031 0.00161031

POINT_DATA 39744
SCALARS P float 1
LOOKUP_TABLE default
0 0 0 0 0 0 0 0 0 0 0 0 0 0 0 0 0 0 0 0 0 0 0 0 0 0 0 0 0 0 0 0 0 0 0 0 0 0 0 0 0 0 0 0 0 0 0 0 0 0 0 0 0 0 0 0 0 0 0 0 0 0 0 0 0 0 0 0 0 0 0 0 0 0 0 0 0 0 0 0 0 0 0 0 0 0 0 0 0 0 0 0 0 0 0 0 0 0 0 0 0 0 0 0 0 0 0 0 0 0 0 0 0 0 0 0 0 0 0 0 0 0 0 0 0 0 0 0 0 0 0 0 0 0 0 0 0 0 0 0 0 0 0 0 0 0 0 0 0 0 0 0 0 0 0 0 0 0 0 0 0 0 0 0 0 0 0 0 0 0 0 0 0 0 0 0 0 0 0 0 0 0 0 0 0 0 0 0 0 0 0 0 0 0 0 0 0 0 0 0 0 0 0 0 0 0 0 0 0 0 0 0 0 0 0 0 0 0 0 0 0 0 0 0 0 0 0 0 0 0 0 0 0 0 0 0 0 0 0 0 0 0 0 0 0 0 0 0 0 0 0 0 0 0 0 0 0 0 0 0 0 0 0 0 0 0 0 0 0 0 0 0 0 0 0 0 0 0 0 0 0 0 0 0 0 0 0 0 0 0 0 0 0 0 0 0 0 0 0 0 0 0 0 0 0 0 0 0 0 0 0 0 0 0 0 0 0 0 0 0 0 0 0 0 0 0 0 0 0 0 0 0 0 0 0 0 0 0 0 0 0 0 0 0 0 0 0 0 0 0 0 0 0 0 0 0 0 0 0 0 0 0 0 0 0 0 0 0 0 0 0 0 0 0 0 0 0 0 0 0 0 0 0 0 0 0 0 0 0 0 0 0 0 0 0 0 0 0 0 0 0 0 0 0 0 0 0 0 0 0 0 0 0 0 0 0 0 0 0 0 0 0 0 0 0 0 0 0 0 0 0 0 0 0 0 0 0 0 0 0 0 0 0 0 0 0 0 0 0 0 0 0 0 0 0 0 0 0 0 0 0 0 0 0 0 0 0 0 0 0 0 0 0 0 0 0 0 0 0 0 0 0 0 0 0 0 0 0 0 0 0 0 0 0 0 0 0 0 0 0 0 0 0 0 0 0 0 0 0 0 0 0 0 0 0 0 0 0 0 0 0 0 0 0 0 0 0 0 0 0 0 0 0 0 0 0 0 0 0 0 0 0 0 0 0 0 0 0 0 0 0 0 0 0 0 0 0 0 0 0 0 0 0 0 0 0 0 0 0 0 0 0 0 0 0 0 0 0 0 0 0 0 0 0 0 0 0 0 0 0 0 0 0 0 0 0 0 0 0 0 0 0 0 0 0 0 0 0 0 0 0 0 0 0 0 0 0 0 0 0 0 
0.02 0.0199992 0.0199982 0.0199971 0.0199959 0.0199948 0.0199938 0.0199931 0.0199927 0.0199927 0.0199932 0.0199942 0.0199956 0.0199974 0.0199994 0.0200016 0.0200036 0.0200053 0.0200065 0.0200069 0.0200061 0.0200041 0.0200004 0.0199946 0.0199859 0.0199734 0.0199557 0.0199317 0.0199018 0.0198681 0.0198294 0.0197856 0.0197347 0.0196749 0.0196044 0.019521 0.0194223 0.0193058 0.019169 0.0190089 0.0188224 0.0186057 0.0183545 0.0180638 0.0177285 0.0173431 0.0169023 0.0164032 0.0158437 0.0152183 0.0145343 0.0138402 0.0130958 0.0129299 0.014315 0 0 0 0 0 0 0 0 0 0 0 0 0 0 0 0 0 0 0 0 0 0 0 0 0 0 0 0 0 0 0 0 0 0 0 0 0 0 0 0 0 0 0 0 0 0 0 0 0 0 0 0 0 0 0 0 0 0 0 0 0 0 0 0 0 0 0 0 0 0 0 0 0 0 0 0 0 0 0 0 0 0 0 0 0 0 0 0 0 0 0 0 0 0 0 0 0 0 0 0 0 0 0 0 0 0 0 0 0 0 0 0 0 0 0 0 0 0 0 0 0 0 0 0 0 0 0 0 0 0 0 0 0 0 0 0 0 0 0 0 0 0 0 0 0 0 0 0 0 0 0 0 0 0 0 0 0 0 0 0 0 0 0 0 0 0 0 0 0 0 0 0 0 0 0 0 0 0 0 0 0 0 0 0 0 0 0 0 0 0 0 0 0 0 0 0 0 0 0 0 0 0 0 0 0 0 0 0 0 0 0 0 0 0 0 0 0 0 0 0 0 0 0 0 0 0 0 0 0 0 0 0 0 0 0 0 0 0 0 0 0 0 0 0 0 0 0 0 0 0 0 0 0 0 0 0 0 0 0 0 0 0 0 0 0 0 0 0 0 0 0 0 0 0 0 0 0 0 0 0 0 0 0 0 0 0 0 0 0 0 0 0 0 0 0 0 0 0 0 0 0 0 0 0 0 0 0 0 0 0 0 0 0 0 0 0 0 0 0 0 0 0 0 0 0 0 0 0 0 0 0 0 0 0 0 0 0 0 0 0 0 0 0 0 0 0 0 0 0 0 0 0 0 0 0 0 0 0 0 0 0 0 0 0 0 0 0 0 0 0 0 0 0 0 0 0 0 0 0 0 0 0 0 0 0 0 0 0 0 0 0 0 0 0 0 0 0 0 0 0 0 0 0 0 0 0 0 0 0 0 0 0 0 0 0 0 0 0 0 0 0 0 0 0 0 0 0 0 0 0 0 0 0 0 0 0 0 0 0 0 0 0 0 0 0 0 0 0 0 0 0 0 0 0 0 0 0 0 0 0 0 0 0 0 0 0 0 0 0 0 0 0 0 0 0 0 0 0 0 0 0 0 0 0 0 0 0 0 0 0 0 0 0 0 0 0 0 0 0 0 0 0 0 0 0 0 0 0 0 0 0 0 0 0 0 0 0 0 0 0 0 0 0 0 0 0 0 0 0 0 0 0 0 0 0 0 0 0 0 0 0 0 0 0 0 0 0 0 0 0 0 0 0 0 0 0 0 0 0 0 0 0 0 0 0 0 
0.02 0.0199992 0.0199982 0.0199971 0.019996 0.0199949 0.0199939 0.0199932 0.0199928 0.0199929 0.0199934 0.0199944 0.0199958 0.0199977 0.0199998 0.0200021 0.0200043 0.0200063 0.0200077 0.0200083 0.020008 0.0200062 0.0200026 0.0199967 0.0199875 0.0199742 0.019956 0.0199329 0.019904 0.0198713 0.0198342 0.019791 0.0197405 0.0196812 0.019611 0.0195279 0.0194294 0.0193132 0.0191766 0.0190167 0.0188304 0.0186138 0.0183629 0.0180727 0.0177381 0.0173536 0.0169145 0.0164176 0.015863 0.0152466 0.0145875 0.0139393 0.0131641 0.0126415 0.0125759 0.011484 0.0101331 0.00870448 0.00726185 0.00647601 0.00468415 0 0 0 0 0 0 0 0 0 0 0 0 0 0 0 0 0 0 0 0 0 0 0 0 0 0 0 0 0 0 0 0 0 0 0 0 0 0 0 0 0 0 0 0 0 0 0 0 0 0 0 0 0 0 0 0 0 0 0 0 0 0 0 0 0 0 0 0 0 0 0 0 0 0 0 0 0 0 0 0 0 0 0 0 0 0 0 0 0 0 0 0 0 0 0 0 0 0 0 0 0 0 0 0 0 0 0 0 0 0 0 0 0 0 0 0 0 0 0 0 0 0 0 0 0 0 0 0 0 0 0 0 0 0 0 0 0 0 0 0 0 0 0 0 0 0 0 0 0 0 0 0 0 0 0 0 0 0 0 0 0 0 0 0 0 0 0 0 0 0 0 0 0 0 0 0 0 0 0 0 0 0 0 0 0 0 0 0 0 0 0 0 0 0 0 0 0 0 0 0 0 0 0 0 0 0 0 0 0 0 0 0 0 0 0 0 0 0 0 0 0 0 0 0 0 0 0 0 0 0 0 0 0 0 0 0 0 0 0 0 0 0 0 0 0 0 0 0 0 0 0 0 0 0 0 0 0 0 0 0 0 0 0 0 0 0 0 0 0 0 0 0 0 0 0 0 0 0 0 0 0 0 0 0 0 0 0 0 0 0 0 0 0 0 0 0 0 0 0 0 0 0 0 0 0 0 0 0 0 0 0 0 0 0 0 0 0 0 0 0 0 0 0 0 0 0 0 0 0 0 0 0 0 0 0 0 0 0 0 0 0 0 0 0 0 0 0 0 0 0 0 0 0 0 0 0 0 0 0 0 0 0 0 0 0 0 0 0 0 0 0 0 0 0 0 0 0 0 0 0 0 0 0 0 0 0 0 0 0 0 0 0 0 0 0 0 0 0 0 0 0 0 0 0 0 0 0 0 0 0 0 0 0 0 0 0 0 0 0 0 0 0 0 0 0 0 0 0 0 0 0 0 0 0 0 0 0 0 0 0 0 0 0 0 0 0 0 0 0 0 0 0 0 0 0 0 0 0 0 0 0 0 0 0 0 0 0 0 0 0 0 0 0 0 0 0 0 0 0 0 0 0 0 0 0 0 0 0 0 0 0 0 0 0 0 0 0 0 0 0 0 0 0 0 0 0 0 0 0 0 0 0 0 0 0 0 0 0 0 0 0 0 0 0 0 0 0 0 0 0 0 0 0 0 0 0 0 0 0 0 0 0 0 0 0 0 0 0 0 0 0 0 0 0 0 0 0 0 0 0 
0.02 0.0199992 0.0199981 0.019997 0.0199958 0.0199946 0.0199936 0.0199929 0.0199925 0.0199925 0.0199931 0.0199941 0.0199956 0.0199976 0.0199999 0.0200024 0.0200049 0.0200073 0.0200092 0.0200104 0.0200106 0.0200093 0.0200059 0.0199998 0.0199903 0.0199765 0.0199584 0.0199356 0.0199085 0.0198771 0.0198407 0.0197981 0.0197482 0.0196892 0.0196194 0.0195365 0.0194382 0.0193221 0.0191854 0.0190256 0.0188393 0.0186229 0.0183722 0.0180825 0.0177489 0.0173668 0.0169316 0.0164424 0.0159044 0.0153181 0.014699 0.0141144 0.0134686 0.0127178 0.0122301 0.0111805 0.00997517 0.00860024 0.00723381 0.00594141 0.00435699 0.00248481 0.000303604 -0.0013036 0 0 0 0 0 0 0 0 0 0 0 0 0 0 0 0 0 0 0 0 0 0 0 0 0 0 0 0 0 0 0 0 0 0 0 0 0 0 0 0 0 0 0 0 0 0 0 0 0 0 0 0 0 0 0 0 0 0 0 0 0 0 0 0 0 0 0 0 0 0 0 0 0 0 0 0 0 0 0 0 0 0 0 0 0 0 0 0 0 0 0 0 0 0 0 0 0 0 0 0 0 0 0 0 0 0 0 0 0 0 0 0 0 0 0 0 0 0 0 0 0 0 0 0 0 0 0 0 0 0 0 0 0 0 0 0 0 0 0 0 0 0 0 0 0 0 0 0 0 0 0 0 0 0 0 0 0 0 0 0 0 0 0 0 0 0 0 0 0 0 0 0 0 0 0 0 0 0 0 0 0 0 0 0 0 0 0 0 0 0 0 0 0 0 0 0 0 0 0 0 0 0 0 0 0 0 0 0 0 0 0 0 0 0 0 0 0 0 0 0 0 0 0 0 0 0 0 0 0 0 0 0 0 0 0 0 0 0 0 0 0 0 0 0 0 0 0 0 0 0 0 0 0 0 0 0 0 0 0 0 0 0 0 0 0 0 0 0 0 0 0 0 0 0 0 0 0 0 0 0 0 0 0 0 0 0 0 0 0 0 0 0 0 0 0 0 0 0 0 0 0 0 0 0 0 0 0 0 0 0 0 0 0 0 0 0 0 0 0 0 0 0 0 0 0 0 0 0 0 0 0 0 0 0 0 0 0 0 0 0 0 0 0 0 0 0 0 0 0 0 0 0 0 0 0 0 0 0 0 0 0 0 0 0 0 0 0 0 0 0 0 0 0 0 0 0 0 0 0 0 0 0 0 0 0 0 0 0 0 0 0 0 0 0 0 0 0 0 0 0 0 0 0 0 0 0 0 0 0 0 0 0 0 0 0 0 0 0 0 0 0 0 0 0 0 0 0 0 0 0 0 0 0 0 0 0 0 0 0 0 0 0 0 0 0 0 0 0 0 0 0 0 0 0 0 0 0 0 0 0 0 0 0 0 0 0 0 0 0 0 0 0 0 0 0 0 0 0 0 0 0 0 0 0 0 0 0 0 0 0 0 0 0 0 0 0 0 0 0 0 0 0 0 0 0 0 0 0 0 0 0 0 0 0 0 0 0 0 0 0 0 0 0 0 0 0 0 0 0 0 0 0 0 0 0 0 0 0 0 0 0 0 0 0 0 0 0 0 0 0 0 0 0 0 0 0 5.42101e-20 
0.02 0.0199991 0.019998 0.0199968 0.0199956 0.0199944 0.0199933 0.0199926 0.0199921 0.0199922 0.0199927 0.0199938 0.0199954 0.0199976 0.0200001 0.0200029 0.0200058 0.0200086 0.020011 0.0200128 0.0200134 0.0200125 0.0200092 0.0200031 0.0199933 0.0199796 0.0199619 0.01994 0.019914 0.0198835 0.0198477 0.0198058 0.0197564 0.0196979 0.0196285 0.0195459 0.0194479 0.0193319 0.0191955 0.0190359 0.0188499 0.0186341 0.0183844 0.0180967 0.0177666 0.0173903 0.0169653 0.0164923 0.0159792 0.0154318 0.0148523 0.0142757 0.0136847 0.0130304 0.0121541 0.0110911 0.00991753 0.00861205 0.0072827 0.0058739 0.00426094 0.00243766 0.000339695 -0.00186186 -0.00503267 -0.00845822 0 0 0 0 0 0 0 0 0 0 0 0 0 0 0 0 0 0 0 0 0 0 0 0 0 0 0 0 0 0 0 0 0 0 0 0 0 0 0 0 0 0 0 0 0 0 0 0 0 0 0 0 0 0 0 0 0 0 0 0 0 0 0 0 0 0 0 0 0 0 0 0 0 0 0 0 0 0 0 0 0 0 0 0 0 0 0 0 0 0 0 0 0 0 0 0 0 0 0 0 0 0 0 0 0 0 0 0 0 0 0 0 0 0 0 0 0 0 0 0 0 0 0 0 0 0 0 0 0 0 0 0 0 0 0 0 0 0 0 0 0 0 0 0 0 0 0 0 0 0 0 0 0 0 0 0 0 0 0 0 0 0 0 0 0 0 0 0 0 0 0 0 0 0 0 0 0 0 0 0 0 0 0 0 0 0 0 0 0 0 0 0 0 0 0 0 0 0 0 0 0 0 0 0 0 0 0 0 0 0 0 0 0 0 0 0 0 0 0 0 0 0 0 0 0 0 0 0 0 0 0 0 0 0 0 0 0 0 0 0 0 0 0 0 0 0 0 0 0 0 0 0 0 0 0 0 0 0 0 0 0 0 0 0 0 0 0 0 0 0 0 0 0 0 0 0 0 0 0 0 0 0 0 0 0 0 0 0 0 0 0 0 0 0 0 0 0 0 0 0 0 0 0 0 0 0 0 0 0 0 0 0 0 0 0 0 0 0 0 0 0 0 0 0 0 0 0 0 0 0 0 0 0 0 0 0 0 0 0 0 0 0 0 0 0 0 0 0 0 0 0 0 0 0 0 0 0 0 0 0 0 0 0 0 0 0 0 0 0 0 0 0 0 0 0 0 0 0 0 0 0 0 0 0 0 0 0 0 0 0 0 0 0 0 0 0 0 0 0 0 0 0 0 0 0 0 0 0 0 0 0 0 0 0 0 0 0 0 0 0 0 0 0 0 0 0 0 0 0 0 0 0 0 0 0 0 0 0 0 0 0 0 0 0 0 0 0 0 0 0 0 0 0 0 0 0 0 0 0 0 0 0 0 0 0 0 0 0 0 0 0 0 0 0 0 0 0 0 0 0 0 0 0 0 0 0 0 0 0 0 0 0 0 0 0 0 0 0 0 0 0 0 0 0 0 0 0 0 0 0 0 0 0 0 0 0 0 0 0 0 0 0 0 0 0 0 0 0 0 0 0 0 0 0 0 0 0 0 0 0 0 0 0 0 0 0 0 0 0 0 0 0 0 -0.00418942 2.1684e-19 
0.02 0.0199991 0.0199979 0.0199967 0.0199954 0.0199942 0.0199931 0.0199923 0.0199919 0.019992 0.0199926 0.0199937 0.0199955 0.0199978 0.0200006 0.0200037 0.020007 0.0200102 0.0200132 0.0200154 0.0200165 0.0200157 0.0200126 0.0200064 0.0199967 0.0199834 0.0199662 0.0199452 0.01992 0.0198902 0.0198551 0.0198137 0.0197649 0.0197069 0.0196379 0.0195557 0.0194581 0.0193426 0.0192067 0.0190478 0.0188629 0.0186488 0.0184019 0.0181185 0.0177953 0.0174303 0.0170226 0.0165735 0.0160903 0.0155817 0.0150422 0.0144584 0.0138331 0.013084 0.0121892 0.0111372 0.00996134 0.00868473 0.00734364 0.00588702 0.00425552 0.00242332 0.000365172 -0.00184309 -0.0047711 -0.0089406 -0.0136699 0 0 0 0 0 0 0 0 0 0 0 0 0 0 0 0 0 0 0 0 0 0 0 0 0 0 0 0 0 0 0 0 0 0 0 0 0 0 0 0 0 0 0 0 0 0 0 0 0 0 0 0 0 0 0 0 0 0 0 0 0 0 0 0 0 0 0 0 0 0 0 0 0 0 0 0 0 0 0 0 0 0 0 0 0 0 0 0 0 0 0 0 0 0 0 0 0 0 0 0 0 0 0 0 0 0 0 0 0 0 0 0 0 0 0 0 0 0 0 0 0 0 0 0 0 0 0 0 0 0 0 0 0 0 0 0 0 0 0 0 0 0 0 0 0 0 0 0 0 0 0 0 0 0 0 0 0 0 0 0 0 0 0 0 0 0 0 0 0 0 0 0 0 0 0 0 0 0 0 0 0 0 0 0 0 0 0 0 0 0 0 0 0 0 0 0 0 0 0 0 0 0 0 0 0 0 0 0 0 0 0 0 0 0 0 0 0 0 0 0 0 0 0 0 0 0 0 0 0 0 0 0 0 0 0 0 0 0 0 0 0 0 0 0 0 0 0 0 0 0 0 0 0 0 0 0 0 0 0 0 0 0 0 0 0 0 0 0 0 0 0 0 0 0 0 0 0 0 0 0 0 0 0 0 0 0 0 0 0 0 0 0 0 0 0 0 0 0 0 0 0 0 0 0 0 0 0 0 0 0 0 0 0 0 0 0 0 0 0 0 0 0 0 0 0 0 0 0 0 0 0 0 0 0 0 0 0 0 0 0 0 0 0 0 0 0 0 0 0 0 0 0 0 0 0 0 0 0 0 0 0 0 0 0 0 0 0 0 0 0 0 0 0 0 0 0 0 0 0 0 0 0 0 0 0 0 0 0 0 0 0 0 0 0 0 0 0 0 0 0 0 0 0 0 0 0 0 0 0 0 0 0 0 0 0 0 0 0 0 0 0 0 0 0 0 0 0 0 0 0 0 0 0 0 0 0 0 0 0 0 0 0 0 0 0 0 0 0 0 0 0 0 0 0 0 0 0 0 0 0 0 0 0 0 0 0 0 0 0 0 0 0 0 0 0 0 0 0 0 0 0 0 0 0 0 0 0 0 0 0 0 0 0 0 0 0 0 0 0 0 0 0 0 0 0 0 0 0 0 0 0 0 0 0 0 0 0 0 0 0 0 0 0 0 0 0 0 0 0 0 0 0 0 0 0 0 0 0 0 0 0 0 0 0 0 0 0 0 0 0 -0.0181256 -0.0135716 -0.00701918 -1.30104e-18 
0.02 0.019999 0.0199979 0.0199966 0.0199953 0.0199941 0.019993 0.0199922 0.0199919 0.019992 0.0199927 0.019994 0.0199959 0.0199985 0.0200015 0.020005 0.0200087 0.0200124 0.0200158 0.0200184 0.0200197 0.0200191 0.0200161 0.02001 0.0200007 0.0199878 0.0199712 0.0199508 0.0199263 0.0198971 0.0198627 0.0198219 0.0197736 0.0197161 0.0196476 0.0195659 0.0194689 0.0193542 0.0192193 0.0190619 0.0188792 0.0186684 0.0184266 0.0181511 0.0178401 0.0174924 0.0171082 0.0166892 0.016237 0.0157552 0.0152353 0.0146516 0.013969 0.0131877 0.0122698 0.0112184 0.0100526 0.00879189 0.00742897 0.00594166 0.00428231 0.00242683 0.000317862 -0.00210733 -0.00475454 -0.00845596 -0.0139667 -0.0210651 0 0 0 0 0 0 0 0 0 0 0 0 0 0 0 0 0 0 0 0 0 0 0 0 0 0 0 0 0 0 0 0 0 0 0 0 0 0 0 0 0 0 0 0 0 0 0 0 0 0 0 0 0 0 0 0 0 0 0 0 0 0 0 0 0 0 0 0 0 0 0 0 0 0 0 0 0 0 0 0 0 0 0 0 0 0 0 0 0 0 0 0 0 0 0 0 0 0 0 0 0 0 0 0 0 0 0 0 0 0 0 0 0 0 0 0 0 0 0 0 0 0 0 0 0 0 0 0 0 0 0 0 0 0 0 0 0 0 0 0 0 0 0 0 0 0 0 0 0 0 0 0 0 0 0 0 0 0 0 0 0 0 0 0 0 0 0 0 0 0 0 0 0 0 0 0 0 0 0 0 0 0 0 0 0 0 0 0 0 0 0 0 0 0 0 0 0 0 0 0 0 0 0 0 0 0 0 0 0 0 0 0 0 0 0 0 0 0 0 0 0 0 0 0 0 0 0 0 0 0 0 0 0 0 0 0 0 0 0 0 0 0 0 0 0 0 0 0 0 0 0 0 0 0 0 0 0 0 0 0 0 0 0 0 0 0 0 0 0 0 0 0 0 0 0 0 0 0 0 0 0 0 0 0 0 0 0 0 0 0 0 0 0 0 0 0 0 0 0 0 0 0 0 0 0 0 0 0 0 0 0 0 0 0 0 0 0 0 0 0 0 0 0 0 0 0 0 0 0 0 0 0 0 0 0 0 0 0 0 0 0 0 0 0 0 0 0 0 0 0 0 0 0 0 0 0 0 0 0 0 0 0 0 0 0 0 0 0 0 0 0 0 0 0 0 0 0 0 0 0 0 0 0 0 0 0 0 0 0 0 0 0 0 0 0 0 0 0 0 0 0 0 0 0 0 0 0 0 0 0 0 0 0 0 0 0 0 0 0 0 0 0 0 0 0 0 0 0 0 0 0 0 0 0 0 0 0 0 0 0 0 0 0 0 0 0 0 0 0 0 0 0 0 0 0 0 0 0 0 0 0 0 0 0 0 0 0 0 0 0 0 0 0 0 0 0 0 0 0 0 0 0 0 0 0 -0.0454327 -0.0500079 -0.0578576 0 0 0 0 0 0 0 0 0 0 0 0 0 0 0 0 0 0 0 0 0 0 0 0 0 0 0 0 0 0 0 0 0 0 0 0 0 0 0 0 0 0 0 0 0 0 0 0 0 0 0 0 0 0 -0.0302108 -0.0324374 -0.0329232 -0.0326547 -0.0315837 -0.0293301 -0.0258944 -0.021293 -0.0155287 -0.00859864 1.51788e-18 
0.02 0.019999 0.0199979 0.0199966 0.0199953 0.0199941 0.0199931 0.0199924 0.0199921 0.0199923 0.0199932 0.0199947 0.0199968 0.0199996 0.020003 0.0200069 0.020011 0.0200151 0.0200189 0.0200218 0.0200233 0.0200229 0.02002 0.0200142 0.0200052 0.0199928 0.0199768 0.0199571 0.0199331 0.0199046 0.0198707 0.0198305 0.0197827 0.0197257 0.0196578 0.0195768 0.0194807 0.0193672 0.0192341 0.0190793 0.0189005 0.0186955 0.0184623 0.0181993 0.0179052 0.0175797 0.0172224 0.0168324 0.0164062 0.0159382 0.0154178 0.0148234 0.0141307 0.0133169 0.0123813 0.011333 0.0101791 0.00891821 0.00754613 0.00602341 0.00432943 0.00242817 0.000254317 -0.0022873 -0.00529136 -0.00860374 -0.0135438 -0.0207276 -0.0303034 0 0 0 0 0 0 0 0 0 0 0 0 0 0 0 0 0 0 0 0 0 0 0 0 0 0 0 0 0 0 0 0 0 0 0 0 0 0 0 0 0 0 0 0 0 0 0 0 0 0 0 0 0 0 0 0 0 0 0 0 0 0 0 0 0 0 0 0 0 0 0 0 0 0 0 0 0 0 0 0 0 0 0 0 0 0 0 0 0 0 0 0 0 0 0 0 0 0 0 0 0 0 0 0 0 0 0 0 0 0 0 0 0 0 0 0 0 0 0 0 0 0 0 0 0 0 0 0 0 0 0 0 0 0 0 0 0 0 0 0 0 0 0 0 0 0 0 0 0 0 0 0 0 0 0 0 0 0 0 0 0 0 0 0 0 0 0 0 0 0 0 0 0 0 0 0 0 0 0 0 0 0 0 0 0 0 0 0 0 0 0 0 0 0 0 0 0 0 0 0 0 0 0 0 0 0 0 0 0 0 0 0 0 0 0 0 0 0 0 0 0 0 0 0 0 0 0 0 0 0 0 0 0 0 0 0 0 0 0 0 0 0 0 0 0 0 0 0 0 0 0 0 0 0 0 0 0 0 0 0 0 0 0 0 0 0 0 0 0 0 0 0 0 0 0 0 0 0 0 0 0 0 0 0 0 0 0 0 0 0 0 0 0 0 0 0 0 0 0 0 0 0 0 0 0 0 0 0 0 0 0 0 0 0 0 0 0 0 0 0 0 0 0 0 0 0 0 0 0 0 0 0 0 0 0 0 0 0 0 0 0 0 0 0 0 0 0 0 0 0 0 0 0 0 0 0 0 0 0 0 0 0 0 0 0 0 0 0 0 0 0 0 0 0 0 0 0 0 0 0 0 0 0 0 0 0 0 0 0 0 0 0 0 0 0 0 0 0 0 0 0 0 0 0 0 0 0 0 0 0 0 0 0 0 0 0 0 0 0 0 0 0 0 0 0 0 0 0 0 0 0 0 0 0 0 0 0 0 0 0 0 0 0 0 0 0 0 0 0 0 0 0 0 0 0 0 0 0 0 0 0 0 0 0 0 0 0 0 0 0 0 0 0 0 -0.0381139 -0.0389617 -0.0436751 -0.0470478 -0.0493191 -0.0508011 -0.0517164 -0.0521031 -0.0510286 -0.0505293 -0.0507468 -0.0502033 -0.051448 -0.0506862 -0.048806 -0.0477323 -0.0466573 -0.0456288 -0.0446362 -0.0436675 -0.0427584 -0.0418066 -0.0406111 -0.0395948 -0.0387814 -0.038114 -0.0375716 -0.0371443 -0.0368266 -0.0366168 -0.0365124 -0.036507 -0.0365918 -0.0367557 -0.0369862 -0.0372695 -0.0375916 -0.0379384 -0.0382967 -0.0386542 -0.0389997 -0.0393233 -0.0396165 -0.0398716 -0.0400754 -0.0401674 -0.0401526 -0.0401789 -0.040193 -0.0401613 -0.0400746 -0.0399346 -0.0397471 -0.0395198 -0.0392612 -0.0389804 -0.0386855 -0.0383839 -0.0380813 -0.0377824 -0.0374901 -0.0372066 -0.0369331 -0.0366693 -0.0363909 -0.0359725 -0.0351629 -0.0338549 -0.0334403 -0.0332101 -0.0326851 -0.0315049 -0.0293766 -0.0261767 -0.0218758 -0.0164229 -0.00944184 -2.1684e-18 
0.02 0.019999 0.0199979 0.0199967 0.0199954 0.0199943 0.0199934 0.0199928 0.0199926 0.019993 0.0199941 0.0199958 0.0199983 0.0200014 0.0200052 0.0200094 0.020014 0.0200185 0.0200226 0.0200257 0.0200275 0.0200273 0.0200246 0.0200191 0.0200105 0.0199986 0.0199832 0.019964 0.0199407 0.0199127 0.0198794 0.0198397 0.0197925 0.0197362 0.019669 0.019589 0.0194942 0.0193827 0.0192526 0.0191021 0.0189295 0.0187334 0.0185124 0.0182655 0.0179918 0.0176903 0.0173587 0.0169931 0.0165863 0.0161263 0.0155985 0.0149868 0.0142731 0.0134493 0.0125148 0.0114736 0.0103261 0.00906559 0.0076721 0.00612296 0.00438257 0.00241211 0.000155422 -0.00248764 -0.00565975 -0.00946636 -0.0136003 -0.0199256 -0.0288634 -0.0411347 0 0 0 0 0 0 0 0 0 0 0 0 0 0 0 0 0 0 0 0 0 0 0 0 0 0 0 0 0 0 0 0 0 0 0 0 0 0 0 0 0 0 0 0 0 0 0 0 0 0 0 0 0 0 0 0 0 0 0 0 0 0 0 0 0 0 0 0 0 0 0 0 0 0 0 0 0 0 0 0 0 0 0 0 0 0 0 0 0 0 0 0 0 0 0 0 0 0 0 0 0 0 0 0 0 0 0 0 0 0 0 0 0 0 0 0 0 0 0 0 0 0 0 0 0 0 0 0 0 0 0 0 0 0 0 0 0 0 0 0 0 0 0 0 0 0 0 0 0 0 0 0 0 0 0 0 0 0 0 0 0 0 0 0 0 0 0 0 0 0 0 0 0 0 0 0 0 0 0 0 0 0 0 0 0 0 0 0 0 0 0 0 0 0 0 0 0 0 0 0 0 0 0 0 0 0 0 0 0 0 0 0 0 0 0 0 0 0 0 0 0 0 0 0 0 0 0 0 0 0 0 0 0 0 0 0 0 0 0 0 0 0 0 0 0 0 0 0 0 0 0 0 0 0 0 0 0 0 0 0 0 0 0 0 0 0 0 0 0 0 0 0 0 0 0 0 0 0 0 0 0 0 0 0 0 0 0 0 0 0 0 0 0 0 0 0 0 0 0 0 0 0 0 0 0 0 0 0 0 0 0 0 0 0 0 0 0 0 0 0 0 0 0 0 0 0 0 0 0 0 0 0 0 0 0 0 0 0 0 0 0 0 0 0 0 0 0 0 0 0 0 0 0 0 0 0 0 0 0 0 0 0 0 0 0 0 0 0 0 0 0 0 0 0 0 0 0 0 0 0 0 0 0 0 0 0 0 0 0 0 0 0 0 0 0 0 0 0 0 0 0 0 0 0 0 0 0 0 0 0 0 0 0 0 0 0 0 0 0 0 0 0 0 0 0 0 0 0 0 0 0 0 0 0 0 0 0 0 0 0 0 0 0 0 0 0 0 0 0 0 0 0 0 0 0 0 0 0 0 0 0 0 0 0 0 0 0 0 0 0 0 0 -0.0361177 -0.0394175 -0.0417575 -0.0444763 -0.0468729 -0.0489501 -0.050436 -0.051295 -0.0517125 -0.0512146 -0.0500108 -0.05045 -0.0503542 -0.0502153 -0.0497469 -0.0485106 -0.0475034 -0.0465048 -0.045476 -0.0445228 -0.0435549 -0.0426393 -0.0416875 -0.0406557 -0.0396877 -0.0388736 -0.038194 -0.0376392 -0.0372026 -0.0368787 -0.0366644 -0.0365563 -0.0365479 -0.03663 -0.0367914 -0.0370195 -0.0373007 -0.0376208 -0.0379659 -0.0383225 -0.0386782 -0.0390218 -0.0393435 -0.0396345 -0.0398862 -0.0400817 -0.0401953 -0.0402306 -0.0402541 -0.0402513 -0.0402058 -0.0401104 -0.039966 -0.0397773 -0.039551 -0.0392951 -0.0390176 -0.0387264 -0.0384281 -0.0381284 -0.037832 -0.0375425 -0.0372613 -0.0369828 -0.0366859 -0.0363194 -0.035812 -0.0351213 -0.0343394 -0.0338401 -0.0333899 -0.0326677 -0.0313863 -0.0293027 -0.0262773 -0.0222296 -0.0169838 -0.00994944 -1.95156e-18 
0.02 0.0199991 0.019998 0.0199968 0.0199957 0.0199946 0.0199938 0.0199934 0.0199934 0.0199941 0.0199954 0.0199974 0.0200002 0.0200038 0.020008 0.0200126 0.0200176 0.0200224 0.0200268 0.0200303 0.0200322 0.0200323 0.0200299 0.0200248 0.0200167 0.0200053 0.0199904 0.0199718 0.0199491 0.0199218 0.0198891 0.0198501 0.0198035 0.019748 0.0196818 0.0196033 0.0195106 0.0194022 0.0192766 0.0191324 0.0189686 0.0187843 0.0185785 0.0183502 0.0180978 0.0178188 0.0175087 0.0171601 0.0167626 0.0163031 0.015767 0.0151421 0.0144199 0.0135947 0.0126653 0.0116308 0.0104881 0.00922315 0.00781579 0.00623227 0.00443438 0.00237966 1.06035e-05 -0.00275813 -0.00604962 -0.0100402 -0.0147747 -0.0197549 -0.0275503 -0.0382605 -0.0535719 0 0 0 0 0 0 0 0 0 0 0 0 0 0 0 0 0 0 0 0 0 0 0 0 0 0 0 0 0 0 0 0 0 0 0 0 0 0 0 0 0 0 0 0 0 0 0 0 0 0 0 0 0 0 0 0 0 0 0 0 0 0 0 0 0 0 0 0 0 0 0 0 0 0 0 0 0 0 0 0 0 0 0 0 0 0 0 0 0 0 0 0 0 0 0 0 0 0 0 0 0 0 0 0 0 0 0 0 0 0 0 0 0 0 0 0 0 0 0 0 0 0 0 0 0 0 0 0 0 0 0 0 0 0 0 0 0 0 0 0 0 0 0 0 0 0 0 0 0 0 0 0 0 0 0 0 0 0 0 0 0 0 0 0 0 0 0 0 0 0 0 0 0 0 0 0 0 0 0 0 0 0 0 0 0 0 0 0 0 0 0 0 0 0 0 0 0 0 0 0 0 0 0 0 0 0 0 0 0 0 0 0 0 0 0 0 0 0 0 0 0 0 0 0 0 0 0 0 0 0 0 0 0 0 0 0 0 0 0 0 0 0 0 0 0 0 0 0 0 0 0 0 0 0 0 0 0 0 0 0 0 0 0 0 0 0 0 0 0 0 0 0 0 0 0 0 0 0 0 0 0 0 0 0 0 0 0 0 0 0 0 0 0 0 0 0 0 0 0 0 0 0 0 0 0 0 0 0 0 0 0 0 0 0 0 0 0 0 0 0 0 0 0 0 0 0 0 0 0 0 0 0 0 0 0 0 0 0 0 0 0 0 0 0 0 0 0 0 0 0 0 0 0 0 0 0 0 0 0 0 0 0 0 0 0 0 0 0 0 0 0 0 0 0 0 0 0 0 0 0 0 0 0 0 0 0 0 0 0 0 0 0 0 0 0 0 0 0 0 0 0 0 0 0 0 0 0 0 0 0 0 0 0 0 0 0 0 0 0 0 0 0 0 0 0 0 0 0 0 0 0 0 0 0 0 0 0 0 0 0 0 0 0 0 0 0 0 0 0 0 0 0 0 0 0 0 0 0 0 0 0 0 0 0 0 0 0 0 0 0 -0.036607 -0.0391759 -0.0408719 -0.0424982 -0.0448964 -0.0466791 -0.0483662 -0.049727 -0.0505693 -0.0509998 -0.0509883 -0.05057 -0.0501654 -0.0498477 -0.0495634 -0.0490427 -0.0481606 -0.0472363 -0.0463241 -0.0453593 -0.0444394 -0.0435176 -0.042624 -0.0417058 -0.0407537 -0.0398311 -0.0390154 -0.0383231 -0.0377533 -0.0373026 -0.0369676 -0.0367452 -0.0366307 -0.0366172 -0.0366948 -0.0368523 -0.0370766 -0.037354 -0.0376703 -0.0380113 -0.0383636 -0.0387149 -0.0390539 -0.0393709 -0.0396568 -0.0399016 -0.0400904 -0.0402101 -0.040264 -0.0402826 -0.040267 -0.0402102 -0.0401079 -0.0399605 -0.0397719 -0.039548 -0.0392962 -0.0390237 -0.0387378 -0.0384447 -0.0381497 -0.0378574 -0.0375705 -0.0372867 -0.036991 -0.0366482 -0.0362164 -0.0356831 -0.0350865 -0.0345143 -0.0340222 -0.0334653 -0.0326327 -0.0312962 -0.0292554 -0.0263708 -0.0225086 -0.0173821 -0.0102824 -2.1684e-18 
0.02 0.0199991 0.0199981 0.0199971 0.019996 0.0199951 0.0199945 0.0199943 0.0199946 0.0199955 0.0199971 0.0199995 0.0200027 0.0200067 0.0200113 0.0200164 0.0200218 0.020027 0.0200317 0.0200354 0.0200377 0.020038 0.020036 0.0200314 0.0200238 0.020013 0.0199988 0.0199809 0.0199588 0.0199322 0.0199002 0.0198619 0.0198162 0.0197618 0.0196971 0.0196207 0.0195312 0.0194274 0.019308 0.0191725 0.0190199 0.0188496 0.0186605 0.0184509 0.0182179 0.0179572 0.0176621 0.0173234 0.0169297 0.0164687 0.0159282 0.0152983 0.0145732 0.0137504 0.0128282 0.0118019 0.0106612 0.00938966 0.00796121 0.00634183 0.00448681 0.00234032 -0.000156123 -0.00306969 -0.00650086 -0.010568 -0.0154857 -0.0211954 -0.027008 -0.0363346 -0.0495147 -0.0667975 0 0 0 0 0 0 0 0 0 0 0 0 0 0 0 0 0 0 0 0 0 0 0 0 0 0 0 0 0 0 0 0 0 0 0 0 0 0 0 0 0 0 0 0 0 0 0 0 0 0 0 0 0 0 0 0 0 0 0 0 0 0 0 0 0 0 0 0 0 0 0 0 0 0 0 0 0 0 0 0 0 0 0 0 0 0 0 0 0 0 0 0 0 0 0 0 0 0 0 0 0 0 0 0 0 0 0 0 0 0 0 0 0 0 0 0 0 0 0 0 0 0 0 0 0 0 0 0 0 0 0 0 0 0 0 0 0 0 0 0 0 0 0 0 0 0 0 0 0 0 0 0 0 0 0 0 0 0 0 0 0 0 0 0 0 0 0 0 0 0 0 0 0 0 0 0 0 0 0 0 0 0 0 0 0 0 0 0 0 0 0 0 0 0 0 0 0 0 0 0 0 0 0 0 0 0 0 0 0 0 0 0 0 0 0 0 0 0 0 0 0 0 0 0 0 0 0 0 0 0 0 0 0 0 0 0 0 0 0 0 0 0 0 0 0 0 0 0 0 0 0 0 0 0 0 0 0 0 0 0 0 0 0 0 0 0 0 0 0 0 0 0 0 0 0 0 0 0 0 0 0 0 0 0 0 0 0 0 0 0 0 0 0 0 0 0 0 0 0 0 0 0 0 0 0 0 0 0 0 0 0 0 0 0 0 0 0 0 0 0 0 0 0 0 0 0 0 0 0 0 0 0 0 0 0 0 0 0 0 0 0 0 0 0 0 0 0 0 0 0 0 0 0 0 0 0 0 0 0 0 0 0 0 0 0 0 0 0 0 0 0 0 0 0 0 0 0 0 0 0 0 0 0 0 0 0 0 0 0 0 0 0 0 0 0 0 0 0 0 0 0 0 0 0 0 0 0 0 0 0 0 0 0 0 0 0 0 0 0 0 0 0 0 0 0 0 0 0 0 0 0 0 0 0 0 0 0 0 0 0 0 0 0 0 0 0 0 0 0 0 0 0 0 0 0 0 0 0 0 0 0 0 0 0 0 0 0 -0.038481 -0.0384235 -0.0398754 -0.0410898 -0.0423451 -0.0434641 -0.0450596 -0.0464156 -0.0477034 -0.0487811 -0.049612 -0.0500952 -0.0502056 -0.0499582 -0.0495596 -0.0493417 -0.0489951 -0.0484776 -0.0477596 -0.046953 -0.0461081 -0.0452269 -0.0443567 -0.0434937 -0.0426366 -0.0417617 -0.0408687 -0.0399937 -0.0391938 -0.0384978 -0.0379165 -0.0374523 -0.0371049 -0.0368719 -0.0367481 -0.0367263 -0.0367964 -0.0369467 -0.0371642 -0.0374347 -0.0377441 -0.0380782 -0.0384234 -0.0387675 -0.0390994 -0.0394092 -0.0396877 -0.0399245 -0.0401072 -0.0402273 -0.0402876 -0.0403016 -0.0402754 -0.0402084 -0.0400992 -0.0399486 -0.0397599 -0.0395386 -0.039291 -0.0390238 -0.0387436 -0.0384561 -0.0381662 -0.0378773 -0.0375899 -0.0372969 -0.0369775 -0.0365986 -0.036138 -0.0356148 -0.035083 -0.0345859 -0.0340947 -0.033489 -0.0325996 -0.0312425 -0.0292499 -0.0264793 -0.0227481 -0.0176851 -0.0105164 -1.73472e-18 
0.02 0.0199992 0.0199983 0.0199974 0.0199965 0.0199958 0.0199954 0.0199954 0.019996 0.0199972 0.0199993 0.0200021 0.0200057 0.0200101 0.0200152 0.0200207 0.0200265 0.0200321 0.0200372 0.0200412 0.0200438 0.0200446 0.0200431 0.020039 0.0200321 0.020022 0.0200085 0.0199913 0.0199701 0.0199442 0.0199131 0.0198758 0.0198313 0.0197783 0.0197158 0.0196425 0.0195574 0.0194596 0.0193485 0.0192233 0.0190835 0.0189281 0.0187555 0.0185629 0.0183462 0.018099 0.0178133 0.0174791 0.0170854 0.0166212 0.0160777 0.0154482 0.0147283 0.0139147 0.0130027 0.011984 0.0108443 0.00956193 0.00810891 0.00644859 0.00453355 0.00230383 -0.000311493 -0.00338012 -0.00697081 -0.0111819 -0.0161156 -0.0220169 -0.0287236 -0.0353233 -0.0463882 -0.0592067 -0.0815069 0 0 0 0 0 0 0 0 0 0 0 0 0 0 0 0 0 0 0 0 0 0 0 0 0 0 0 0 0 0 0 0 0 0 0 0 0 0 0 0 0 0 0 0 0 0 0 0 0 0 0 0 0 0 0 0 0 0 0 0 0 0 0 0 0 0 0 0 0 0 0 0 0 0 0 0 0 0 0 0 0 0 0 0 0 0 0 0 0 0 0 0 0 0 0 0 0 0 0 0 0 0 0 0 0 0 0 0 0 0 0 0 0 0 0 0 0 0 0 0 0 0 0 0 0 0 0 0 0 0 0 0 0 0 0 0 0 0 0 0 0 0 0 0 0 0 0 0 0 0 0 0 0 0 0 0 0 0 0 0 0 0 0 0 0 0 0 0 0 0 0 0 0 0 0 0 0 0 0 0 0 0 0 0 0 0 0 0 0 0 0 0 0 0 0 0 0 0 0 0 0 0 0 0 0 0 0 0 0 0 0 0 0 0 0 0 0 0 0 0 0 0 0 0 0 0 0 0 0 0 0 0 0 0 0 0 0 0 0 0 0 0 0 0 0 0 0 0 0 0 0 0 0 0 0 0 0 0 0 0 0 0 0 0 0 0 0 0 0 0 0 0 0 0 0 0 0 0 0 0 0 0 0 0 0 0 0 0 0 0 0 0 0 0 0 0 0 0 0 0 0 0 0 0 0 0 0 0 0 0 0 0 0 0 0 0 0 0 0 0 0 0 0 0 0 0 0 0 0 0 0 0 0 0 0 0 0 0 0 0 0 0 0 0 0 0 0 0 0 0 0 0 0 0 0 0 0 0 0 0 0 0 0 0 0 0 0 0 0 0 0 0 0 0 0 0 0 0 0 0 0 0 0 0 0 0 0 0 0 0 0 0 0 0 0 0 0 0 0 0 0 0 0 0 0 0 0 0 0 0 0 0 0 0 0 0 0 0 0 0 0 0 0 0 0 0 0 0 0 0 0 0 0 0 0 0 0 0 0 0 0 0 0 0 0 0 0 0 0 0 0 0 0 0 0 0 0 0 0 0 0 0 0 0 0 -0.041952 -0.041053 -0.0412487 -0.0428357 -0.0435646 -0.0440314 -0.0445276 -0.0452567 -0.0461061 -0.0469634 -0.0477734 -0.0485293 -0.0490427 -0.0492992 -0.0492977 -0.049099 -0.0488263 -0.04845 -0.0479459 -0.0473359 -0.0466366 -0.0458702 -0.045075 -0.0442736 -0.0434698 -0.0426581 -0.0418313 -0.0409929 -0.0401675 -0.0393954 -0.0387079 -0.0381231 -0.03765 -0.0372917 -0.0370473 -0.0369123 -0.0368794 -0.0369387 -0.0370784 -0.0372855 -0.0375457 -0.0378447 -0.0381683 -0.0385032 -0.0388371 -0.0391589 -0.0394589 -0.0397276 -0.039955 -0.0401308 -0.0402481 -0.0403076 -0.0403168 -0.0402822 -0.0402064 -0.0400904 -0.0399362 -0.039747 -0.0395277 -0.039284 -0.0390219 -0.0387474 -0.0384655 -0.03818 -0.0378927 -0.0376007 -0.0372939 -0.0369528 -0.0365557 -0.0360966 -0.0356017 -0.035113 -0.0346436 -0.0341432 -0.033503 -0.0325803 -0.0312209 -0.0292772 -0.0265979 -0.0229579 -0.0179255 -0.0106908 -2.1684e-18 
0.02 0.0199993 0.0199985 0.0199977 0.019997 0.0199965 0.0199964 0.0199967 0.0199977 0.0199993 0.0200017 0.020005 0.0200091 0.0200139 0.0200195 0.0200255 0.0200316 0.0200377 0.0200431 0.0200476 0.0200507 0.020052 0.0200511 0.0200477 0.0200415 0.0200322 0.0200196 0.0200034 0.0199831 0.0199582 0.0199282 0.0198921 0.0198492 0.0197985 0.0197389 0.0196698 0.0195904 0.0195001 0.0193986 0.0192851 0.0191588 0.019018 0.0188603 0.0186818 0.018477 0.0182388 0.0179585 0.0176264 0.017233 0.0167693 0.016228 0.0156039 0.0148926 0.0140897 0.0131877 0.012175 0.0110335 0.00973834 0.00825772 0.00655287 0.00457656 0.00226876 -0.000444871 -0.00364583 -0.0073994 -0.0117691 -0.0168458 -0.0226943 -0.029604 -0.0373082 -0.0445431 -0.057462 -0.0707517 -0.0942716 0 0 0 0 0 0 0 0 0 0 0 0 0 0 0 0 0 0 0 0 0 0 0 0 0 0 0 0 0 0 0 0 0 0 0 0 0 0 0 0 0 0 0 0 0 0 0 0 0 0 0 0 0 0 0 0 0 0 0 0 0 0 0 0 0 0 0 0 0 0 0 0 0 0 0 0 0 0 0 0 0 0 0 0 0 0 0 0 0 0 0 0 0 0 0 0 0 0 0 0 0 0 0 0 0 0 0 0 0 0 0 0 0 0 0 0 0 0 0 0 0 0 0 0 0 0 0 0 0 0 0 0 0 0 0 0 0 0 0 0 0 0 0 0 0 0 0 0 0 0 0 0 0 0 0 0 0 0 0 0 0 0 0 0 0 0 0 0 0 0 0 0 0 0 0 0 0 0 0 0 0 0 0 0 0 0 0 0 0 0 0 0 0 0 0 0 0 0 0 0 0 0 0 0 0 0 0 0 0 0 0 0 0 0 0 0 0 0 0 0 0 0 0 0 0 0 0 0 0 0 0 0 0 0 0 0 0 0 0 0 0 0 0 0 0 0 0 0 0 0 0 0 0 0 0 0 0 0 0 0 0 0 0 0 0 0 0 0 0 0 0 0 0 0 0 0 0 0 0 0 0 0 0 0 0 0 0 0 0 0 0 0 0 0 0 0 0 0 0 0 0 0 0 0 0 0 0 0 0 0 0 0 0 0 0 0 0 0 0 0 0 0 0 0 0 0 0 0 0 0 0 0 0 0 0 0 0 0 0 0 0 0 0 0 0 0 0 0 0 0 0 0 0 0 0 0 0 0 0 0 0 0 0 0 0 0 0 0 0 0 0 0 0 0 0 0 0 0 0 0 0 0 0 0 0 0 0 0 0 0 0 0 0 0 0 0 0 0 0 0 0 0 0 0 0 0 0 0 0 0 0 0 0 0 0 0 0 0 0 0 0 0 0 0 0 0 0 0 0 0 0 0 0 0 0 0 0 0 0 0 0 0 0 0 0 0 0 0 0 0 0 0 0 0 0 0 0 0 0 0 0 0 0 -0.0412206 -0.0433414 -0.0446549 -0.0446259 -0.0450866 -0.0450227 -0.0450259 -0.0450188 -0.0453203 -0.0456651 -0.0461865 -0.0467866 -0.0474183 -0.0479113 -0.0482395 -0.0483709 -0.0483167 -0.0481201 -0.0478288 -0.0474331 -0.0469063 -0.0462901 -0.0456161 -0.0449109 -0.0441832 -0.0434401 -0.0426815 -0.0419078 -0.041124 -0.0403492 -0.0396132 -0.0389451 -0.0383666 -0.0378912 -0.0375255 -0.0372707 -0.0371236 -0.0370777 -0.0371235 -0.0372494 -0.0374424 -0.0376884 -0.0379731 -0.0382825 -0.0386033 -0.0389235 -0.039232 -0.0395191 -0.0397755 -0.0399915 -0.0401582 -0.0402694 -0.0403245 -0.0403281 -0.040286 -0.0402023 -0.04008 -0.0399219 -0.0397317 -0.0395139 -0.0392736 -0.0390164 -0.0387472 -0.0384704 -0.0381884 -0.0379004 -0.0376011 -0.0372798 -0.0369227 -0.0365206 -0.036078 -0.0356165 -0.0351586 -0.0346996 -0.0341849 -0.0335178 -0.0325753 -0.0312242 -0.0293273 -0.0267207 -0.0231437 -0.0181226 -0.0108275 3.90313e-18 