# vtk DataFile Version 2.0
iteration 1431
ASCII

DATASET STRUCTURED_POINTS
DIMENSIONS 621 64 1
ORIGIN 0 0 0
SPACING 0.00161031 0.00161031 0.00161031

POINT_DATA 39744
SCALARS P float 1
LOOKUP_TABLE default
0 0 0 0 0 0 0 0 0 0 0 0 0 0 0 0 0 0 0 0 0 0 0 0 0 0 0 0 0 0 0 0 0 0 0 0 0 0 0 0 0 0 0 0 0 0 0 0 0 0 0 0 0 0 0 0 0 0 0 0 0 0 0 0 0 0 0 0 0 0 0 0 0 0 0 0 0 0 0 0 0 0 0 0 0 0 0 0 0 0 0 0 0 0 0 0 0 0 0 0 0 0 0 0 0 0 0 0 0 0 0 0 0 0 0 0 0 0 0 0 0 0 0 0 0 0 0 0 0 0 0 0 0 0 0 0 0 0 0 0 0 0 0 0 0 0 0 0 0 0 0 0 0 0 0 0 0 0 0 0 0 0 0 0 0 0 0 0 0 0 0 0 0 0 0 0 0 0 0 0 0 0 0 0 0 0 0 0 0 0 0 0 0 0 0 0 0 0 0 0 0 0 0 0 0 0 0 0 0 0 0 0 0 0 0 0 0 0 0 0 0 0 0 0 0 0 0 0 0 0 0 0 0 0 0 0 0 0 0 0 0 0 0 0 0 0 0 0 0 0 0 0 0 0 0 0 0 0 0 0 0 0 0 0 0 0 0 0 0 0 0 0 0 0 0 0 0 0 0 0 0 0 0 0 0 0 0 0 0 0 0 0 0 0 0 0 0 0 0 0 0 0 0 0 0 0 0 0 0 0 0 0 0 0 0 0 0 0 0 0 0 0 0 0 0 0 0 0 0 0 0 0 0 0 0 0 0 0 0 0 0 0 0 0 0 0 0 0 0 0 0 0 0 0 0 0 0 0 0 0 0 0 0 0 0 0 0 0 0 0 0 0 0 0 0 0 0 0 0 0 0 0 0 0 0 0 0 0 0 0 0 0 0 0 0 0 0 0 0 0 0 0 0 0 0 0 0 0 0 0 0 0 0 0 0 0 0 0 0 0 0 0 0 0 0 0 0 0 0 0 0 0 0 0 0 0 0 0 0 0 0 0 0 0 0 0 0 0 0 0 0 0 0 0 0 0 0 0 0 0 0 0 0 0 0 0 0 0 0 0 0 0 0 0 0 0 0 0 0 0 0 0 0 0 0 0 0 0 0 0 0 0 0 0 0 0 0 0 0 0 0 0 0 0 0 0 0 0 0 0 0 0 0 0 0 0 0 0 0 0 0 0 0 0 0 0 0 0 0 0 0 0 0 0 0 0 0 0 0 0 0 0 0 0 0 0 0 0 0 0 0 0 0 0 0 0 0 0 0 0 0 0 0 0 0 0 0 0 0 0 0 0 0 0 0 0 0 0 0 0 0 0 0 0 0 0 0 0 0 0 0 0 0 0 0 0 0 0 0 0 0 0 0 0 0 0 0 0 0 0 0 0 0 0 0 0 0 0 0 0 0 
0.02 0.02 0.02 0.02 0.02 0.02 0.02 0.02 0.02 0.02 0.02 0.02 0.02 0.02 0.02 0.02 0.02 0.02 0.02 0.02 0.02 0.02 0.02 0.02 0.02 0.02 0.02 0.02 0.02 0.02 0.02 0.02 0.02 0.02 0.02 0.02 0.02 0.02 0.02 0.02 0.02 0.02 0.02 0.02 0.02 0.02 0.02 0.02 0.02 0.02 0.02 0.02 0.02 0.02 0.02 0.02 0.02 0.02 0.02 0.02 0.02 0.02 0.02 0.02 0.02 0.02 0.02 0.02 0.02 0.02 0.02 0.02 0.02 0.02 0.02 0.02 0.02 0.02 0.02 0.02 0.02 0.02 0.02 0.02 0.02 0.02 0.02 0.02 0.0200001 0.0200001 0.0200001 0.0200001 0.0200001 0.0200001 0.0200001 0.0200001 0.0200001 0.0200002 0.0200002 0.0200002 0.0200002 0.0200003 0.0200003 0.0200003 0.0200003 0.0200004 0.0200004 0.0200005 0.0200005 0.0200006 0.0200006 0.0200007 0.0200008 0.0200009 0.020001 0.0200011 0.0200012 0.0200013 0.0200014 0.0200016 0.0200017 0.0200019 0.0200021 0.0200023 0.0200025 0.0200027 0.020003 0.0200033 0.0200036 0.0200039 0.0200043 0.0200047 0.0200051 0.0200055 0.020006 0.0200065 0.0200071 0.0200077 0.0200084 0.0200091 0.0200099 0.0200107 0.0200115 0.0200125 0.0200135 0.0200145 0.0200157 0.0200169 0.0200182 0.0200196 0.020021 0.0200226 0.0200242 0.0200259 0.0200277 0.0200296 0.0200316 0.0200338 0.020036 0.0200382 0.0200406 0.0200431 0.0200457 0.0200483 0.0200511 0.0200539 0.0200568 0.0200597 0.0200627 0.0200657 0.0200687 0.0200718 0.0200748 0.0200778 0.0200808 0.0200837 0.0200865 0.0200892 0.0200917 0.0200941 0.0200963 0.0200983 0.0201 0.0201015 0.0201027 0.0201035 0.0201039 0.020104 0.0201036 0.0201027 0.0201013 0.0200994 0.020097 0.0200939 0.0200902 0.0200858 0.0200803 0.0200739 0.0200671 0.0200596 0.0200515 0.0200426 0.0200329 0.0200224 0.0200112 0.0199991 0.0199863 0.0199726 0.0199582 0.019943 0.019927 0.0199103 0.0198929 0.0198747 0.0198559 0.0198364 0.0198163 0.0197956 0.0197744 0.0197526 0.0197304 0.0197077 0.0196847 0.0196613 0.0196377 0.0196138 0.0195897 0.0195655 0.0195412 0.0195169 0.0194926 0.0194684 0.0194444 0.0194205 0.019397 0.0193737 0.0193509 0.0193285 0.0193065 0.0192852 0.0192644 0.0192443 0.0192248 0.0192061 0.0191882 0.0191711 0.0191548 0.0191394 0.0191248 0.0191112 0.0190984 0.0190865 0.0190756 0.0190654 0.0190559 0.0190473 0.0190406 0.0190352 0.0190324 0.0190319 0.0190328 0.0190353 0.0190393 0.0190449 0.019052 0.0190606 0.0190707 0.0190823 0.0190953 0.0191097 0.0191253 0.0191422 0.0191603 0.0191794 0.0191994 0.0192203 0.0192419 0.019264 0.0192866 0.0193096 0.0193326 0.0193557 0.0193786 0.0194012 0.0194233 0.0194448 0.0194655 0.0194852 0.0195039 0.0195213 0.0195374 0.0195519 0.0195649 0.0195761 0.0195854 0.0195928 0.0195981 0.0196013 0.0196022 0.0196009 0.0195971 0.019591 0.0195823 0.0195712 0.0195575 0.0195413 0.0195225 0.019501 0.0194768 0.0194498 0.0194198 0.0193868 0.0193504 0.0193106 0.0192669 0.019219 0.0191665 0.019109 0.0190458 0.0189764 0.0189002 0.0188163 0.0187241 0.0186226 0.0185108 0.0183876 0.018252 0.0181024 0.0179376 0.0177558 0.017556 0.0173361 0.0170941 0.016829 0.0165551 0.0162254 0.0159615 0.0159627 0.0180587 0.0162458 0 0 0 0 0 0 0 0 0 0 0 0 0 0 0 0 0 0 0 0 0 0 0 0 0 0 0 0 0 0 0 0 0 0 0 0 0 0 0 0 0 0 0 0 0 0 0 0 0 0 0 0 0 0 0 0 0 0 0 0 0 0 0 0 0 0 0 0 0 0 0 0 0 0 0 0 0 0 0 0 0 0 0 0 0 0 0 0 0 0 0 0 0 0 0 0 0 0 0 0 0 0 0 0 0 0 0 0 0 0 0 0 0 0 0 0 0 0 0 0 0 0 0 0 0 0 0 0 0 0 0 0 0 0 0 0 0 0 0 0 0 0 0 0 0 0 0 0 0 0 0 0 0 0 0 0 0 0 0 0 0 0 0 0 0 0 0 0 0 0 0 0 0 0 0 0 0 0 0 0 0 0 0 0 0 0 0 0 0 0 0 0 0 0 0 0 0 0 0 0 0 0 0 0 0 0 0 0 0 0 0 0 0 0 0 0 0 0 0 0 0 0 0 0 0 0 0 0 0 0 0 0 0 0 0 0 0 0 0 0 0 0 0 0 0 0 0 0 0 0 0 0 0 0 0 0 0 0 0 0 0 0 0 0 0 0 0 0 0 0 0 0 0 0 0 0 0 0 0 0 0 
0.02 0.02 0.02 0.02 0.02 0.02 0.02 0.02 0.02 0.02 0.02 0.02 0.02 0.02 0.02 0.02 0.02 0.02 0.02 0.02 0.02 0.02 0.02 0.02 0.02 0.02 0.02 0.02 0.02 0.02 0.02 0.02 0.02 0.02 0.02 0.02 0.02 0.02 0.02 0.02 0.02 0.02 0.02 0.02 0.02 0.02 0.02 0.02 0.02 0.02 0.02 0.02 0.02 0.02 0.02 0.02 0.02 0.02 0.02 0.02 0.02 0.02 0.02 0.02 0.02 0.02 0.02 0.02 0.02 0.02 0.02 0.02 0.02 0.02 0.02 0.02 0.02 0.02 0.02 0.02 0.02 0.02 0.02 0.02 0.02 0.02 0.02 0.02 0.0200001 0.0200001 0.0200001 0.0200001 0.0200001 0.0200001 0.0200001 0.0200001 0.0200001 0.0200002 0.0200002 0.0200002 0.0200002 0.0200002 0.0200003 0.0200003 0.0200003 0.0200004 0.0200004 0.0200005 0.0200005 0.0200006 0.0200006 0.0200007 0.0200008 0.0200009 0.020001 0.0200011 0.0200012 0.0200013 0.0200014 0.0200016 0.0200017 0.0200019 0.0200021 0.0200023 0.0200025 0.0200027 0.020003 0.0200033 0.0200036 0.0200039 0.0200042 0.0200046 0.020005 0.0200055 0.020006 0.0200065 0.020007 0.0200077 0.0200083 0.020009 0.0200098 0.0200106 0.0200114 0.0200124 0.0200134 0.0200144 0.0200155 0.0200168 0.020018 0.0200194 0.0200208 0.0200224 0.020024 0.0200257 0.0200275 0.0200294 0.0200314 0.0200335 0.0200357 0.020038 0.0200404 0.0200428 0.0200454 0.020048 0.0200508 0.0200536 0.0200564 0.0200594 0.0200623 0.0200653 0.0200684 0.0200714 0.0200744 0.0200774 0.0200804 0.0200833 0.0200861 0.0200888 0.0200914 0.0200938 0.020096 0.020098 0.0200998 0.0201012 0.0201024 0.0201033 0.0201038 0.0201038 0.0201035 0.0201027 0.0201014 0.0200995 0.0200971 0.0200942 0.0200905 0.0200862 0.0200809 0.0200748 0.0200682 0.0200608 0.0200528 0.020044 0.0200345 0.0200242 0.0200131 0.0200012 0.0199885 0.019975 0.0199608 0.0199458 0.01993 0.0199135 0.0198962 0.0198783 0.0198596 0.0198404 0.0198204 0.0197999 0.0197789 0.0197573 0.0197353 0.0197128 0.0196899 0.0196667 0.0196432 0.0196195 0.0195955 0.0195714 0.0195472 0.019523 0.0194988 0.0194747 0.0194507 0.0194269 0.0194033 0.0193801 0.0193572 0.0193347 0.0193126 0.0192911 0.0192702 0.0192498 0.0192301 0.0192111 0.0191928 0.0191753 0.0191585 0.0191426 0.0191274 0.0191131 0.0190997 0.0190871 0.0190755 0.019065 0.0190558 0.0190477 0.0190413 0.0190373 0.019035 0.0190343 0.0190351 0.0190373 0.0190412 0.0190465 0.0190534 0.0190618 0.0190718 0.0190831 0.0190959 0.0191101 0.0191256 0.0191423 0.0191601 0.019179 0.0191989 0.0192196 0.019241 0.019263 0.0192855 0.0193083 0.0193313 0.0193542 0.019377 0.0193995 0.0194216 0.019443 0.0194637 0.0194834 0.019502 0.0195194 0.0195355 0.0195501 0.0195631 0.0195743 0.0195837 0.0195911 0.0195965 0.0195998 0.0196008 0.0195995 0.0195959 0.0195898 0.0195813 0.0195702 0.0195566 0.0195405 0.0195217 0.0195002 0.0194761 0.019449 0.0194191 0.019386 0.0193496 0.0193097 0.019266 0.019218 0.0191655 0.0191079 0.0190447 0.0189753 0.018899 0.0188152 0.0187229 0.0186214 0.0185096 0.0183864 0.0182507 0.0181012 0.0179363 0.0177545 0.0175547 0.0173354 0.0170943 0.0168332 0.0165723 0.0163048 0.0160259 0.0159832 0.016309 0.0160282 0.0152868 0.014738 0.0141817 0.0136101 0.0130029 0.0123418 0.0115886 0.0106916 0.00971183 0.00876784 0.00801391 0.00791679 0.00652552 0 0 0 0 0 0 0 0 0 0 0 0 0 0 0 0 0 0 0 0 0 0 0 0 0 0 0 0 0 0 0 0 0 0 0 0 0 0 0 0 0 0 0 0 0 0 0 0 0 0 0 0 0 0 0 0 0 0 0 0 0 0 0 0 0 0 0 0 0 0 0 0 0 0 0 0 0 0 0 0 0 0 0 0 0 0 0 0 0 0 0 0 0 0 0 0 0 0 0 0 0 0 0 0 0 0 0 0 0 0 0 0 0 0 0 0 0 0 0 0 0 0 0 0 0 0 0 0 0 0 0 0 0 0 0 0 0 0 0 0 0 0 0 0 0 0 0 0 0 0 0 0 0 0 0 0 0 0 0 0 0 0 0 0 0 0 0 0 0 0 0 0 0 0 0 0 0 0 0 0 0 0 0 0 0 0 0 0 0 0 0 0 0 0 0 0 0 0 0 0 0 0 0 0 0 0 0 0 0 0 0 0 0 0 0 0 0 0 0 0 0 0 0 0 0 0 0 0 0 0 0 0 0 0 0 0 0 0 0 0 0 0 0 0 0 0 0 0 0 0 0 0 0 0 0 0 0 0 0 0 0 0 0 0 0 0 0 0 
0.02 0.02 0.02 0.02 0.02 0.02 0.02 0.02 0.02 0.02 0.02 0.02 0.02 0.02 0.02 0.02 0.02 0.02 0.02 0.02 0.02 0.02 0.02 0.02 0.02 0.02 0.02 0.02 0.02 0.02 0.02 0.02 0.02 0.02 0.02 0.02 0.02 0.02 0.02 0.02 0.02 0.02 0.02 0.02 0.02 0.02 0.02 0.02 0.02 0.02 0.02 0.02 0.02 0.02 0.02 0.02 0.02 0.02 0.02 0.02 0.02 0.02 0.02 0.02 0.02 0.02 0.02 0.02 0.02 0.02 0.02 0.02 0.02 0.02 0.02 0.02 0.02 0.02 0.02 0.02 0.02 0.02 0.02 0.02 0.02 0.02 0.02 0.02 0.0200001 0.0200001 0.0200001 0.0200001 0.0200001 0.0200001 0.0200001 0.0200001 0.0200001 0.0200002 0.0200002 0.0200002 0.0200002 0.0200002 0.0200003 0.0200003 0.0200003 0.0200004 0.0200004 0.0200005 0.0200005 0.0200006 0.0200006 0.0200007 0.0200008 0.0200009 0.0200009 0.020001 0.0200012 0.0200013 0.0200014 0.0200015 0.0200017 0.0200019 0.020002 0.0200022 0.0200024 0.0200027 0.0200029 0.0200032 0.0200035 0.0200038 0.0200042 0.0200046 0.020005 0.0200054 0.0200059 0.0200064 0.020007 0.0200076 0.0200082 0.0200089 0.0200097 0.0200105 0.0200113 0.0200122 0.0200132 0.0200143 0.0200154 0.0200166 0.0200178 0.0200192 0.0200206 0.0200222 0.0200238 0.0200255 0.0200273 0.0200291 0.0200311 0.0200332 0.0200354 0.0200376 0.02004 0.0200425 0.020045 0.0200476 0.0200503 0.0200531 0.020056 0.0200589 0.0200618 0.0200648 0.0200678 0.0200709 0.0200739 0.0200769 0.0200798 0.0200827 0.0200855 0.0200882 0.0200908 0.0200932 0.0200954 0.0200974 0.0200992 0.0201007 0.0201019 0.0201028 0.0201033 0.0201034 0.0201031 0.0201023 0.0201011 0.0200993 0.020097 0.0200941 0.0200905 0.0200862 0.0200812 0.0200753 0.0200688 0.0200616 0.0200537 0.0200451 0.0200357 0.0200255 0.0200146 0.0200029 0.0199904 0.0199771 0.0199631 0.0199483 0.0199328 0.0199165 0.0198995 0.0198818 0.0198634 0.0198444 0.0198247 0.0198045 0.0197837 0.0197624 0.0197407 0.0197185 0.0196959 0.0196729 0.0196496 0.0196261 0.0196024 0.0195785 0.0195546 0.0195305 0.0195065 0.0194825 0.0194587 0.019435 0.0194115 0.0193883 0.0193654 0.0193429 0.0193208 0.0192991 0.019278 0.0192574 0.0192374 0.0192181 0.0191993 0.0191813 0.019164 0.0191475 0.0191317 0.0191169 0.0191029 0.01909 0.0190783 0.0190678 0.0190586 0.0190514 0.0190459 0.019042 0.0190396 0.0190386 0.0190391 0.0190412 0.0190448 0.01905 0.0190567 0.0190648 0.0190745 0.0190857 0.0190982 0.0191121 0.0191274 0.0191438 0.0191614 0.0191801 0.0191997 0.0192201 0.0192413 0.0192631 0.0192853 0.0193078 0.0193305 0.0193532 0.0193758 0.0193981 0.0194199 0.0194412 0.0194616 0.0194811 0.0194996 0.0195169 0.0195328 0.0195473 0.0195601 0.0195713 0.0195806 0.0195879 0.0195933 0.0195965 0.0195975 0.0195963 0.0195926 0.0195866 0.0195781 0.0195672 0.0195537 0.0195376 0.0195189 0.0194975 0.0194734 0.0194465 0.0194166 0.0193835 0.0193472 0.0193073 0.0192636 0.0192156 0.0191631 0.0191054 0.0190422 0.0189728 0.0188965 0.0188126 0.0187203 0.0186187 0.0185068 0.0183835 0.0182476 0.0180978 0.0179327 0.0177507 0.017551 0.0173333 0.0170957 0.0168456 0.0166086 0.0163896 0.0161548 0.0160672 0.01599 0.0157527 0.01522 0.0146917 0.0141503 0.0135697 0.0129464 0.0122601 0.011491 0.0106341 0.00972128 0.00881553 0.00801538 0.00736885 0.00636679 0.0051981 0.00395763 0.00263602 0.00127265 0.000112472 -0.00140079 0 0 0 0 0 0 0 0 0 0 0 0 0 0 0 0 0 0 0 0 0 0 0 0 0 0 0 0 0 0 0 0 0 0 0 0 0 0 0 0 0 0 0 0 0 0 0 0 0 0 0 0 0 0 0 0 0 0 0 0 0 0 0 0 0 0 0 0 0 0 0 0 0 0 0 0 0 0 0 0 0 0 0 0 0 0 0 0 0 0 0 0 0 0 0 0 0 0 0 0 0 0 0 0 0 0 0 0 0 0 0 0 0 0 0 0 0 0 0 0 0 0 0 0 0 0 0 0 0 0 0 0 0 0 0 0 0 0 0 0 0 0 0 0 0 0 0 0 0 0 0 0 0 0 0 0 0 0 0 0 0 0 0 0 0 0 0 0 0 0 0 0 0 0 0 0 0 0 0 0 0 0 0 0 0 0 0 0 0 0 0 0 0 0 0 0 0 0 0 0 0 0 0 0 0 0 0 0 0 0 0 0 0 0 0 0 0 0 0 0 0 0 0 0 0 0 0 0 0 0 0 0 0 0 0 0 0 0 0 0 0 0 0 0 0 0 0 0 0 0 0 0 0 0 0 0 0 0 0 0 0 0 
0.02 0.02 0.02 0.02 0.02 0.02 0.02 0.02 0.02 0.02 0.02 0.02 0.02 0.02 0.02 0.02 0.02 0.02 0.02 0.02 0.02 0.02 0.02 0.02 0.02 0.02 0.02 0.02 0.02 0.02 0.02 0.02 0.02 0.02 0.02 0.02 0.02 0.02 0.02 0.02 0.02 0.02 0.02 0.02 0.02 0.02 0.02 0.02 0.02 0.02 0.02 0.02 0.02 0.02 0.02 0.02 0.02 0.02 0.02 0.02 0.02 0.02 0.02 0.02 0.02 0.02 0.02 0.02 0.02 0.02 0.02 0.02 0.02 0.02 0.02 0.02 0.02 0.02 0.02 0.02 0.02 0.02 0.02 0.02 0.02 0.02 0.02 0.02 0.0200001 0.0200001 0.0200001 0.0200001 0.0200001 0.0200001 0.0200001 0.0200001 0.0200001 0.0200002 0.0200002 0.0200002 0.0200002 0.0200002 0.0200003 0.0200003 0.0200003 0.0200004 0.0200004 0.0200005 0.0200005 0.0200006 0.0200006 0.0200007 0.0200008 0.0200008 0.0200009 0.020001 0.0200011 0.0200012 0.0200014 0.0200015 0.0200017 0.0200018 0.020002 0.0200022 0.0200024 0.0200026 0.0200029 0.0200032 0.0200034 0.0200038 0.0200041 0.0200045 0.0200049 0.0200053 0.0200058 0.0200063 0.0200068 0.0200074 0.0200081 0.0200088 0.0200095 0.0200103 0.0200111 0.020012 0.020013 0.020014 0.0200151 0.0200163 0.0200176 0.0200189 0.0200203 0.0200218 0.0200234 0.0200251 0.0200269 0.0200287 0.0200307 0.0200327 0.0200349 0.0200371 0.0200395 0.0200419 0.0200444 0.020047 0.0200497 0.0200525 0.0200553 0.0200582 0.0200611 0.0200641 0.0200671 0.0200701 0.020073 0.020076 0.020079 0.0200818 0.0200846 0.0200873 0.0200899 0.0200923 0.0200945 0.0200965 0.0200983 0.0200998 0.020101 0.0201019 0.0201025 0.0201026 0.0201024 0.0201016 0.0201005 0.0200988 0.0200965 0.0200937 0.0200902 0.0200861 0.0200812 0.0200755 0.0200692 0.0200621 0.0200544 0.0200459 0.0200368 0.0200268 0.0200161 0.0200046 0.0199924 0.0199794 0.0199657 0.0199512 0.0199359 0.01992 0.0199033 0.0198859 0.0198679 0.0198492 0.0198299 0.01981 0.0197896 0.0197687 0.0197472 0.0197254 0.0197031 0.0196805 0.0196576 0.0196344 0.019611 0.0195874 0.0195637 0.0195399 0.0195161 0.0194924 0.0194687 0.0194451 0.0194217 0.0193985 0.0193756 0.019353 0.0193308 0.019309 0.0192876 0.0192667 0.0192463 0.0192265 0.0192073 0.0191888 0.019171 0.0191539 0.0191378 0.0191225 0.0191084 0.0190955 0.0190838 0.0190737 0.0190651 0.019058 0.0190524 0.0190482 0.0190455 0.0190443 0.0190446 0.0190464 0.0190497 0.0190546 0.019061 0.0190689 0.0190782 0.0190891 0.0191013 0.0191149 0.0191298 0.0191459 0.0191632 0.0191815 0.0192007 0.0192208 0.0192416 0.019263 0.0192848 0.019307 0.0193294 0.0193517 0.019374 0.0193959 0.0194174 0.0194383 0.0194585 0.0194778 0.019496 0.019513 0.0195287 0.0195429 0.0195556 0.0195665 0.0195757 0.019583 0.0195882 0.0195914 0.0195924 0.0195911 0.0195875 0.0195815 0.0195731 0.0195622 0.0195488 0.0195329 0.0195143 0.0194931 0.0194691 0.0194423 0.0194126 0.0193797 0.0193435 0.0193037 0.0192601 0.0192122 0.0191597 0.0191021 0.0190389 0.0189695 0.0188933 0.0188094 0.018717 0.0186154 0.0185033 0.0183799 0.0182438 0.0180938 0.0179285 0.0177465 0.0175477 0.0173335 0.0171055 0.0168708 0.0166585 0.0164862 0.0163121 0.0160733 0.0159323 0.0155993 0.0151572 0.0146529 0.0141242 0.0135395 0.0129005 0.0121988 0.0114246 0.0105957 0.00972695 0.00885767 0.00804381 0.00722019 0.00620109 0.00507676 0.00384261 0.00255069 0.00123455 -9.73958e-05 -0.00160408 -0.00331503 -0.00512508 -0.00740594 -0.00915445 0 0 0 0 0 0 0 0 0 0 0 0 0 0 0 0 0 0 0 0 0 0 0 0 0 0 0 0 0 0 0 0 0 0 0 0 0 0 0 0 0 0 0 0 0 0 0 0 0 0 0 0 0 0 0 0 0 0 0 0 0 0 0 0 0 0 0 0 0 0 0 0 0 0 0 0 0 0 0 0 0 0 0 0 0 0 0 0 0 0 0 0 0 0 0 0 0 0 0 0 0 0 0 0 0 0 0 0 0 0 0 0 0 0 0 0 0 0 0 0 0 0 0 0 0 0 0 0 0 0 0 0 0 0 0 0 0 0 0 0 0 0 0 0 0 0 0 0 0 0 0 0 0 0 0 0 0 0 0 0 0 0 0 0 0 0 0 0 0 0 0 0 0 0 0 0 0 0 0 0 0 0 0 0 0 0 0 0 0 0 0 0 0 0 0 0 0 0 0 0 0 0 0 0 0 0 0 0 0 0 0 0 0 0 0 0 0 0 0 0 0 0 0 0 0 0 0 0 0 0 0 0 0 0 0 0 0 0 0 0 0 0 0 0 0 0 0 0 0 0 0 0 0 0 0 0 0 -6.50521e-19 
0.02 0.02 0.02 0.02 0.02 0.02 0.02 0.02 0.02 0.02 0.02 0.02 0.02 0.02 0.02 0.02 0.02 0.02 0.02 0.02 0.02 0.02 0.02 0.02 0.02 0.02 0.02 0.02 0.02 0.02 0.02 0.02 0.02 0.02 0.02 0.02 0.02 0.02 0.02 0.02 0.02 0.02 0.02 0.02 0.02 0.02 0.02 0.02 0.02 0.02 0.02 0.02 0.02 0.02 0.02 0.02 0.02 0.02 0.02 0.02 0.02 0.02 0.02 0.02 0.02 0.02 0.02 0.02 0.02 0.02 0.02 0.02 0.02 0.02 0.02 0.02 0.02 0.02 0.02 0.02 0.02 0.02 0.02 0.02 0.02 0.02 0.02 0.02 0.02 0.0200001 0.0200001 0.0200001 0.0200001 0.0200001 0.0200001 0.0200001 0.0200001 0.0200001 0.0200002 0.0200002 0.0200002 0.0200002 0.0200003 0.0200003 0.0200003 0.0200004 0.0200004 0.0200004 0.0200005 0.0200005 0.0200006 0.0200007 0.0200007 0.0200008 0.0200009 0.020001 0.0200011 0.0200012 0.0200013 0.0200015 0.0200016 0.0200018 0.0200019 0.0200021 0.0200023 0.0200026 0.0200028 0.0200031 0.0200034 0.0200037 0.020004 0.0200044 0.0200048 0.0200052 0.0200057 0.0200062 0.0200067 0.0200073 0.0200079 0.0200086 0.0200093 0.0200101 0.0200109 0.0200118 0.0200127 0.0200137 0.0200148 0.020016 0.0200172 0.0200185 0.0200199 0.0200214 0.020023 0.0200246 0.0200263 0.0200282 0.0200301 0.0200321 0.0200342 0.0200365 0.0200388 0.0200412 0.0200436 0.0200462 0.0200488 0.0200516 0.0200543 0.0200572 0.0200601 0.020063 0.020066 0.0200689 0.0200719 0.0200748 0.0200777 0.0200806 0.0200834 0.020086 0.0200886 0.020091 0.0200932 0.0200952 0.020097 0.0200985 0.0200998 0.0201007 0.0201012 0.0201014 0.0201012 0.0201006 0.0200995 0.0200978 0.0200957 0.020093 0.0200897 0.0200856 0.0200809 0.0200755 0.0200694 0.0200625 0.020055 0.0200468 0.0200379 0.0200282 0.0200178 0.0200066 0.0199947 0.019982 0.0199686 0.0199545 0.0199396 0.019924 0.0199077 0.0198908 0.0198731 0.0198549 0.019836 0.0198166 0.0197966 0.0197761 0.0197551 0.0197337 0.0197119 0.0196897 0.0196672 0.0196444 0.0196213 0.0195981 0.0195747 0.0195512 0.0195277 0.0195041 0.0194806 0.0194571 0.0194338 0.0194106 0.0193877 0.019365 0.0193426 0.0193205 0.0192989 0.0192776 0.0192569 0.0192366 0.019217 0.0191981 0.0191799 0.0191626 0.0191462 0.019131 0.0191169 0.019104 0.0190925 0.0190825 0.0190738 0.0190664 0.0190605 0.019056 0.0190529 0.0190513 0.0190513 0.0190527 0.0190557 0.0190602 0.0190662 0.0190737 0.0190827 0.0190931 0.019105 0.0191181 0.0191326 0.0191483 0.0191651 0.0191829 0.0192017 0.0192213 0.0192416 0.0192626 0.019284 0.0193057 0.0193276 0.0193495 0.0193713 0.0193928 0.0194139 0.0194344 0.0194541 0.019473 0.0194909 0.0195076 0.019523 0.0195369 0.0195493 0.0195601 0.0195691 0.0195762 0.0195813 0.0195844 0.0195853 0.019584 0.0195805 0.0195746 0.0195662 0.0195555 0.0195422 0.0195265 0.0195081 0.0194871 0.0194634 0.0194368 0.0194073 0.0193746 0.0193386 0.0192991 0.0192556 0.0192079 0.0191556 0.0190982 0.0190351 0.0189658 0.0188896 0.0188057 0.0187134 0.0186117 0.0184996 0.018376 0.0182397 0.0180896 0.0179244 0.0177433 0.0175469 0.0173387 0.0171245 0.0169101 0.0167138 0.0165508 0.0164061 0.0162119 0.015921 0.0155402 0.0151099 0.0146255 0.0140927 0.0135048 0.0128549 0.0121464 0.0113769 0.0105692 0.00973929 0.00888071 0.00802024 0.00710009 0.0060694 0.00492924 0.00370637 0.00241671 0.00108701 -0.000305251 -0.00179527 -0.00343475 -0.00513614 -0.00703939 -0.0094007 -0.0118221 -0.0155881 0 0 0 0 0 0 0 0 0 0 0 0 0 0 0 0 0 0 0 0 0 0 0 0 0 0 0 0 0 0 0 0 0 0 0 0 0 0 0 0 0 0 0 0 0 0 0 0 0 0 0 0 0 0 0 0 0 0 0 0 0 0 0 0 0 0 0 0 0 0 0 0 0 0 0 0 0 0 0 0 0 0 0 0 0 0 0 0 0 0 0 0 0 0 0 0 0 0 0 0 0 0 0 0 0 0 0 0 0 0 0 0 0 0 0 0 0 0 0 0 0 0 0 0 0 0 0 0 0 0 0 0 0 0 0 0 0 0 0 0 0 0 0 0 0 0 0 0 0 0 0 0 0 0 0 0 0 0 0 0 0 0 0 0 0 0 0 0 0 0 0 0 0 0 0 0 0 0 0 0 0 0 0 0 0 0 0 0 0 0 0 0 0 0 0 0 0 0 0 0 0 0 0 0 0 0 0 0 0 0 0 0 0 0 0 0 0 0 0 0 0 0 0 0 0 0 0 0 0 0 0 0 0 0 0 0 0 0 0 0 0 0 0 0 0 0 0 0 0 0 0 0 0 0 -0.00515564 0 
0.02 0.02 0.02 0.02 0.02 0.02 0.02 0.02 0.02 0.02 0.02 0.02 0.02 0.02 0.02 0.02 0.02 0.02 0.02 0.02 0.02 0.02 0.02 0.02 0.02 0.02 0.02 0.02 0.02 0.02 0.02 0.02 0.02 0.02 0.02 0.02 0.02 0.02 0.02 0.02 0.02 0.02 0.02 0.02 0.02 0.02 0.02 0.02 0.02 0.02 0.02 0.02 0.02 0.02 0.02 0.02 0.02 0.02 0.02 0.02 0.02 0.02 0.02 0.02 0.02 0.02 0.02 0.02 0.02 0.02 0.02 0.02 0.02 0.02 0.02 0.02 0.02 0.02 0.02 0.02 0.02 0.02 0.02 0.02 0.02 0.02 0.02 0.02 0.02 0.0200001 0.0200001 0.0200001 0.0200001 0.0200001 0.0200001 0.0200001 0.0200001 0.0200001 0.0200002 0.0200002 0.0200002 0.0200002 0.0200002 0.0200003 0.0200003 0.0200003 0.0200004 0.0200004 0.0200005 0.0200005 0.0200006 0.0200006 0.0200007 0.0200008 0.0200009 0.020001 0.0200011 0.0200012 0.0200013 0.0200014 0.0200016 0.0200017 0.0200019 0.0200021 0.0200023 0.0200025 0.0200027 0.020003 0.0200033 0.0200036 0.0200039 0.0200042 0.0200046 0.020005 0.0200055 0.020006 0.0200065 0.0200071 0.0200077 0.0200083 0.020009 0.0200098 0.0200106 0.0200114 0.0200124 0.0200134 0.0200144 0.0200156 0.0200168 0.020018 0.0200194 0.0200208 0.0200224 0.020024 0.0200257 0.0200275 0.0200294 0.0200314 0.0200334 0.0200356 0.0200379 0.0200402 0.0200426 0.0200452 0.0200478 0.0200504 0.0200532 0.020056 0.0200588 0.0200617 0.0200646 0.0200675 0.0200704 0.0200733 0.0200762 0.020079 0.0200817 0.0200844 0.0200869 0.0200893 0.0200915 0.0200935 0.0200953 0.0200968 0.0200981 0.020099 0.0200996 0.0200999 0.0200997 0.0200991 0.0200981 0.0200966 0.0200946 0.020092 0.0200888 0.020085 0.0200805 0.0200753 0.0200694 0.0200628 0.0200556 0.0200476 0.020039 0.0200296 0.0200195 0.0200087 0.0199972 0.0199849 0.0199719 0.0199582 0.0199438 0.0199286 0.0199128 0.0198964 0.0198792 0.0198615 0.0198431 0.0198242 0.0198047 0.0197847 0.0197643 0.0197434 0.019722 0.0197003 0.0196782 0.0196559 0.0196333 0.0196104 0.0195874 0.0195642 0.0195409 0.0195176 0.0194942 0.0194709 0.0194476 0.0194245 0.0194015 0.0193787 0.0193561 0.0193338 0.0193119 0.0192904 0.0192693 0.0192488 0.019229 0.0192098 0.0191915 0.0191741 0.0191577 0.0191424 0.0191283 0.0191154 0.0191038 0.0190934 0.0190843 0.0190766 0.0190702 0.0190653 0.0190618 0.0190598 0.0190593 0.0190603 0.0190628 0.0190668 0.0190724 0.0190794 0.0190879 0.0190978 0.0191091 0.0191218 0.0191357 0.0191508 0.0191671 0.0191844 0.0192026 0.0192216 0.0192414 0.0192618 0.0192826 0.0193037 0.019325 0.0193464 0.0193677 0.0193886 0.0194092 0.0194292 0.0194485 0.019467 0.0194844 0.0195007 0.0195157 0.0195293 0.0195415 0.019552 0.0195607 0.0195677 0.0195727 0.0195756 0.0195765 0.0195752 0.0195717 0.0195659 0.0195577 0.0195471 0.019534 0.0195185 0.0195004 0.0194797 0.0194562 0.0194299 0.0194007 0.0193684 0.0193327 0.0192934 0.0192502 0.0192028 0.0191507 0.0190935 0.0190307 0.0189615 0.0188855 0.0188017 0.0187094 0.0186077 0.0184955 0.0183718 0.0182355 0.0180855 0.017921 0.017742 0.01755 0.0173501 0.01715 0.0169555 0.0167685 0.0165926 0.0164056 0.0161813 0.0158819 0.0155098 0.0150802 0.0145968 0.0140575 0.0134654 0.0128114 0.0121028 0.0113423 0.0105494 0.00973199 0.00887822 0.0079638 0.00700055 0.0059336 0.00477416 0.00354428 0.00224618 0.000875626 -0.000563754 -0.00209346 -0.00371412 -0.00552258 -0.00738792 -0.00949916 -0.0117524 -0.0143976 -0.018163 -0.0225937 -0.0265221 0 0 0 0 0 0 0 0 0 0 0 0 0 0 0 0 0 0 0 0 0 0 0 0 0 0 0 0 0 0 0 0 0 0 0 0 0 0 0 0 0 0 0 0 0 0 0 0 0 0 0 0 0 0 0 0 0 0 0 0 0 0 0 0 0 0 0 0 0 0 0 0 0 0 0 0 0 0 0 0 0 0 0 0 0 0 0 0 0 0 0 0 0 0 0 0 0 0 0 0 0 0 0 0 0 0 0 0 0 0 0 0 0 0 0 0 0 0 0 0 0 0 0 0 0 0 0 0 0 0 0 0 0 0 0 0 0 0 0 0 0 0 0 0 0 0 0 0 0 0 0 0 0 0 0 0 0 0 0 0 0 0 0 0 0 0 0 0 0 0 0 0 0 0 0 0 0 0 0 0 0 0 0 0 0 0 0 0 0 0 0 0 0 0 0 0 0 0 0 0 0 0 0 0 0 0 0 0 0 0 0 0 0 0 0 0 0 0 0 0 0 0 0 0 0 0 0 0 0 0 0 0 0 0 0 0 0 0 0 0 0 0 0 0 0 0 0 0 0 0 -0.0178658 -0.00917968 -2.81893e-18 
0.02 0.02 0.02 0.02 0.02 0.02 0.02 0.02 0.02 0.02 0.02 0.02 0.02 0.02 0.02 0.02 0.02 0.02 0.02 0.02 0.02 0.02 0.02 0.02 0.02 0.02 0.02 0.02 0.02 0.02 0.02 0.02 0.02 0.02 0.02 0.02 0.02 0.02 0.02 0.02 0.02 0.02 0.02 0.02 0.02 0.02 0.02 0.02 0.02 0.02 0.02 0.02 0.02 0.02 0.02 0.02 0.02 0.02 0.02 0.02 0.02 0.02 0.02 0.02 0.02 0.02 0.02 0.02 0.02 0.02 0.02 0.02 0.02 0.02 0.02 0.02 0.02 0.02 0.02 0.02 0.02 0.02 0.02 0.02 0.02 0.02 0.02 0.02 0.02 0.0200001 0.0200001 0.0200001 0.0200001 0.0200001 0.0200001 0.0200001 0.0200001 0.0200001 0.0200002 0.0200002 0.0200002 0.0200002 0.0200002 0.0200003 0.0200003 0.0200003 0.0200004 0.0200004 0.0200005 0.0200005 0.0200006 0.0200006 0.0200007 0.0200008 0.0200008 0.0200009 0.020001 0.0200011 0.0200012 0.0200014 0.0200015 0.0200016 0.0200018 0.020002 0.0200022 0.0200024 0.0200026 0.0200029 0.0200031 0.0200034 0.0200037 0.0200041 0.0200044 0.0200048 0.0200053 0.0200057 0.0200062 0.0200068 0.0200074 0.020008 0.0200087 0.0200094 0.0200102 0.020011 0.0200119 0.0200129 0.0200139 0.020015 0.0200162 0.0200174 0.0200188 0.0200202 0.0200217 0.0200232 0.0200249 0.0200266 0.0200285 0.0200304 0.0200324 0.0200345 0.0200368 0.020039 0.0200414 0.0200439 0.0200464 0.020049 0.0200517 0.0200545 0.0200572 0.0200601 0.0200629 0.0200658 0.0200686 0.0200715 0.0200743 0.0200771 0.0200798 0.0200824 0.0200849 0.0200872 0.0200894 0.0200914 0.0200932 0.0200947 0.020096 0.020097 0.0200976 0.0200979 0.0200978 0.0200973 0.0200964 0.020095 0.0200931 0.0200906 0.0200876 0.020084 0.0200797 0.0200748 0.0200692 0.0200629 0.020056 0.0200484 0.0200401 0.0200311 0.0200214 0.020011 0.0199999 0.0199881 0.0199755 0.0199623 0.0199484 0.0199338 0.0199185 0.0199026 0.019886 0.0198689 0.0198511 0.0198328 0.0198139 0.0197945 0.0197746 0.0197542 0.0197334 0.0197122 0.0196907 0.0196688 0.0196467 0.0196242 0.0196016 0.0195788 0.0195558 0.0195327 0.0195096 0.0194864 0.0194632 0.0194401 0.0194171 0.0193942 0.0193715 0.0193491 0.0193271 0.0193054 0.0192842 0.0192636 0.0192437 0.0192245 0.0192061 0.0191886 0.0191721 0.0191567 0.0191424 0.0191292 0.0191172 0.0191064 0.0190968 0.0190886 0.0190818 0.0190764 0.0190724 0.0190698 0.0190688 0.0190692 0.0190712 0.0190746 0.0190796 0.019086 0.0190939 0.0191032 0.0191139 0.0191259 0.0191392 0.0191537 0.0191692 0.0191859 0.0192034 0.0192218 0.0192408 0.0192605 0.0192807 0.0193011 0.0193218 0.0193425 0.0193631 0.0193835 0.0194035 0.0194229 0.0194417 0.0194596 0.0194765 0.0194924 0.019507 0.0195203 0.019532 0.0195422 0.0195507 0.0195575 0.0195623 0.0195652 0.019566 0.0195647 0.0195613 0.0195555 0.0195475 0.0195371 0.0195243 0.019509 0.0194912 0.0194708 0.0194477 0.0194218 0.019393 0.019361 0.0193257 0.0192868 0.0192439 0.0191969 0.0191451 0.0190882 0.0190256 0.0189567 0.0188809 0.0187973 0.0187051 0.0186034 0.0184912 0.0183675 0.0182313 0.0180819 0.0179191 0.0177436 0.0175579 0.0173672 0.0171787 0.0169969 0.0168178 0.016631 0.0164231 0.0161666 0.0158527 0.0154787 0.0150479 0.0145626 0.0140211 0.0134253 0.0127718 0.0120667 0.0113154 0.0105277 0.00970689 0.00884351 0.00791152 0.00689546 0.00579323 0.00461227 0.00336022 0.00203397 0.000630866 -0.00086957 -0.00245402 -0.00412953 -0.00593081 -0.00790677 -0.00997728 -0.0123239 -0.014814 -0.0177355 -0.0212041 -0.025487 -0.0320483 -0.0361248 0 0 0 0 0 0 0 0 0 0 0 0 0 0 0 0 0 0 0 0 0 0 0 0 0 0 0 0 0 0 0 0 0 0 0 0 0 0 0 0 0 0 0 0 0 0 0 0 0 0 0 0 0 0 0 0 0 0 0 0 0 0 0 0 0 0 0 0 0 0 0 0 0 0 0 0 0 0 0 0 0 0 0 0 0 0 0 0 0 0 0 0 0 0 0 0 0 0 0 0 0 0 0 0 0 0 0 0 0 0 0 0 0 0 0 0 0 0 0 0 0 0 0 0 0 0 0 0 0 0 0 0 0 0 0 0 0 0 0 0 0 0 0 0 0 0 0 0 0 0 0 0 0 0 0 0 0 0 0 0 0 0 0 0 0 0 0 0 0 0 0 0 0 0 0 0 0 0 0 0 0 0 0 0 0 0 0 0 0 0 0 0 0 0 0 0 0 0 0 0 0 0 0 0 0 0 0 0 0 0 0 0 0 0 0 0 0 0 0 0 0 0 0 0 0 0 0 0 0 0 0 0 0 0 0 0 0 0 0 0 0 0 0 0 0 0 -0.0373166 -0.0309177 -0.022151 -0.012107 -6.50521e-19 