# vtk DataFile Version 2.0
iteration 810
ASCII

DATASET STRUCTURED_POINTS
DIMENSIONS 621 64 1
ORIGIN 0 0 0
SPACING 0.00161031 0.00161031 0.00161031

POINT_DATA 39744
SCALARS P float 1
LOOKUP_TABLE default
0 0 0 0 0 0 0 0 0 0 0 0 0 0 0 0 0 0 0 0 0 0 0 0 0 0 0 0 0 0 0 0 0 0 0 0 0 0 0 0 0 0 0 0 0 0 0 0 0 0 0 0 0 0 0 0 0 0 0 0 0 0 0 0 0 0 0 0 0 0 0 0 0 0 0 0 0 0 0 0 0 0 0 0 0 0 0 0 0 0 0 0 0 0 0 0 0 0 0 0 0 0 0 0 0 0 0 0 0 0 0 0 0 0 0 0 0 0 0 0 0 0 0 0 0 0 0 0 0 0 0 0 0 0 0 0 0 0 0 0 0 0 0 0 0 0 0 0 0 0 0 0 0 0 0 0 0 0 0 0 0 0 0 0 0 0 0 0 0 0 0 0 0 0 0 0 0 0 0 0 0 0 0 0 0 0 0 0 0 0 0 0 0 0 0 0 0 0 0 0 0 0 0 0 0 0 0 0 0 0 0 0 0 0 0 0 0 0 0 0 0 0 0 0 0 0 0 0 0 0 0 0 0 0 0 0 0 0 0 0 0 0 0 0 0 0 0 0 0 0 0 0 0 0 0 0 0 0 0 0 0 0 0 0 0 0 0 0 0 0 0 0 0 0 0 0 0 0 0 0 0 0 0 0 0 0 0 0 0 0 0 0 0 0 0 0 0 0 0 0 0 0 0 0 0 0 0 0 0 0 0 0 0 0 0 0 0 0 0 0 0 0 0 0 0 0 0 0 0 0 0 0 0 0 0 0 0 0 0 0 0 0 0 0 0 0 0 0 0 0 0 0 0 0 0 0 0 0 0 0 0 0 0 0 0 0 0 0 0 0 0 0 0 0 0 0 0 0 0 0 0 0 0 0 0 0 0 0 0 0 0 0 0 0 0 0 0 0 0 0 0 0 0 0 0 0 0 0 0 0 0 0 0 0 0 0 0 0 0 0 0 0 0 0 0 0 0 0 0 0 0 0 0 0 0 0 0 0 0 0 0 0 0 0 0 0 0 0 0 0 0 0 0 0 0 0 0 0 0 0 0 0 0 0 0 0 0 0 0 0 0 0 0 0 0 0 0 0 0 0 0 0 0 0 0 0 0 0 0 0 0 0 0 0 0 0 0 0 0 0 0 0 0 0 0 0 0 0 0 0 0 0 0 0 0 0 0 0 0 0 0 0 0 0 0 0 0 0 0 0 0 0 0 0 0 0 0 0 0 0 0 0 0 0 0 0 0 0 0 0 0 0 0 0 0 0 0 0 0 0 0 0 0 0 0 0 0 0 0 0 0 0 0 0 0 0 0 0 0 0 0 0 0 0 0 0 0 0 0 0 0 0 0 0 0 0 0 0 0 0 0 0 0 0 0 0 0 0 0 0 0 0 0 0 0 0 0 0 0 0 0 
0.02 0.02 0.02 0.02 0.02 0.02 0.02 0.02 0.02 0.02 0.02 0.02 0.02 0.02 0.02 0.02 0.02 0.02 0.02 0.02 0.02 0.02 0.02 0.02 0.02 0.02 0.02 0.02 0.0200001 0.0200001 0.0200001 0.0200001 0.0200001 0.0200002 0.0200002 0.0200002 0.0200003 0.0200003 0.0200003 0.0200004 0.0200005 0.0200006 0.0200006 0.0200007 0.0200009 0.020001 0.0200011 0.0200013 0.0200015 0.0200017 0.0200019 0.0200021 0.0200024 0.0200027 0.020003 0.0200034 0.0200038 0.0200042 0.0200046 0.0200052 0.0200057 0.0200063 0.020007 0.0200077 0.0200085 0.0200094 0.0200103 0.0200113 0.0200124 0.0200136 0.0200148 0.0200162 0.0200177 0.0200193 0.0200209 0.0200227 0.0200247 0.0200267 0.0200288 0.0200311 0.0200334 0.0200359 0.0200384 0.0200411 0.0200438 0.0200465 0.0200493 0.0200521 0.0200549 0.0200576 0.0200602 0.0200627 0.020065 0.020067 0.0200687 0.0200701 0.0200709 0.0200711 0.0200707 0.0200695 0.0200673 0.020064 0.0200595 0.0200535 0.0200453 0.0200355 0.0200233 0.0200083 0.0199907 0.01997 0.0199457 0.0199178 0.0198858 0.0198493 0.019808 0.0197618 0.0197102 0.0196532 0.0195905 0.019522 0.0194479 0.0193683 0.0192833 0.0191933 0.0190987 0.0189997 0.0188969 0.0187907 0.0186814 0.0185695 0.0184553 0.0183391 0.0182214 0.0181022 0.0179818 0.0178601 0.0177369 0.0176122 0.0174853 0.0173557 0.0172226 0.0170851 0.016942 0.0167922 0.0166342 0.0164668 0.0162885 0.016098 0.0158943 0.0156763 0.0154434 0.0151951 0.0149313 0.014652 0.0143579 0.0140505 0.0137328 0.0134077 0.0130673 0.0126829 0.0122943 0.0119194 0.0115545 0.0112418 0.0111556 0.0121006 0 0 0 0 0 0 0 0 0 0 0 0 0 0 0 0 0 0 0 0 0 0 0 0 0 0 0 0 0 0 0 0 0 0 0 0 0 0 0 0 0 0 0 0 0 0 0 0 0 0 0 0 0 0 0 0 0 0 0 0 0 0 0 0 0 0 0 0 0 0 0 0 0 0 0 0 0 0 0 0 0 0 0 0 0 0 0 0 0 0 0 0 0 0 0 0 0 0 0 0 0 0 0 0 0 0 0 0 0 0 0 0 0 0 0 0 0 0 0 0 0 0 0 0 0 0 0 0 0 0 0 0 0 0 0 0 0 0 0 0 0 0 0 0 0 0 0 0 0 0 0 0 0 0 0 0 0 0 0 0 0 0 0 0 0 0 0 0 0 0 0 0 0 0 0 0 0 0 0 0 0 0 0 0 0 0 0 0 0 0 0 0 0 0 0 0 0 0 0 0 0 0 0 0 0 0 0 0 0 0 0 0 0 0 0 0 0 0 0 0 0 0 0 0 0 0 0 0 0 0 0 0 0 0 0 0 0 0 0 0 0 0 0 0 0 0 0 0 0 0 0 0 0 0 0 0 0 0 0 0 0 0 0 0 0 0 0 0 0 0 0 0 0 0 0 0 0 0 0 0 0 0 0 0 0 0 0 0 0 0 0 0 0 0 0 0 0 0 0 0 0 0 0 0 0 0 0 0 0 0 0 0 0 0 0 0 0 0 0 0 0 0 0 0 0 0 0 0 0 0 0 0 0 0 0 0 0 0 0 0 0 0 0 0 0 0 0 0 0 0 0 0 0 0 0 0 0 0 0 0 0 0 0 0 0 0 0 0 0 0 0 0 0 0 0 0 0 0 0 0 0 0 0 0 0 0 0 0 0 0 0 0 0 0 0 0 0 0 0 0 0 0 0 0 0 0 0 0 0 0 0 0 0 0 0 0 0 0 0 0 0 0 0 0 0 0 0 0 0 0 0 0 0 0 0 0 0 0 0 0 0 0 0 0 0 0 0 0 0 0 0 0 0 0 0 
0.02 0.02 0.02 0.02 0.02 0.02 0.02 0.02 0.02 0.02 0.02 0.02 0.02 0.02 0.02 0.02 0.02 0.02 0.02 0.02 0.02 0.02 0.02 0.02 0.02 0.02 0.02 0.02 0.0200001 0.0200001 0.0200001 0.0200001 0.0200001 0.0200002 0.0200002 0.0200002 0.0200003 0.0200003 0.0200003 0.0200004 0.0200005 0.0200006 0.0200006 0.0200007 0.0200009 0.020001 0.0200011 0.0200013 0.0200015 0.0200017 0.0200019 0.0200021 0.0200024 0.0200027 0.020003 0.0200034 0.0200037 0.0200042 0.0200046 0.0200051 0.0200057 0.0200063 0.020007 0.0200077 0.0200085 0.0200093 0.0200103 0.0200113 0.0200124 0.0200135 0.0200148 0.0200162 0.0200176 0.0200192 0.0200209 0.0200227 0.0200246 0.0200266 0.0200287 0.020031 0.0200333 0.0200358 0.0200383 0.020041 0.0200437 0.0200465 0.0200492 0.020052 0.0200548 0.0200576 0.0200602 0.0200627 0.020065 0.0200671 0.0200688 0.0200701 0.020071 0.0200713 0.0200709 0.0200698 0.0200676 0.0200644 0.02006 0.0200541 0.0200465 0.020037 0.0200252 0.0200107 0.0199935 0.0199731 0.0199492 0.0199215 0.0198897 0.0198535 0.0198124 0.0197664 0.019715 0.0196581 0.0195956 0.0195274 0.0194535 0.0193741 0.0192894 0.0191997 0.0191053 0.0190066 0.0189041 0.0187982 0.0186892 0.0185776 0.0184638 0.018348 0.0182306 0.0181118 0.0179918 0.0178705 0.0177479 0.0176237 0.0174975 0.0173687 0.0172366 0.0171002 0.0169585 0.0168103 0.0166543 0.016489 0.0163131 0.0161253 0.0159244 0.0157094 0.0154794 0.0152339 0.0149724 0.0146949 0.0144016 0.0140938 0.0137729 0.013439 0.0130878 0.012715 0.0123365 0.0119638 0.0116039 0.0113078 0.0111628 0.0112158 0.0108929 0.010442 0.0100446 0.00953556 0.00881186 0.00836602 0.00903095 0 0 0 0 0 0 0 0 0 0 0 0 0 0 0 0 0 0 0 0 0 0 0 0 0 0 0 0 0 0 0 0 0 0 0 0 0 0 0 0 0 0 0 0 0 0 0 0 0 0 0 0 0 0 0 0 0 0 0 0 0 0 0 0 0 0 0 0 0 0 0 0 0 0 0 0 0 0 0 0 0 0 0 0 0 0 0 0 0 0 0 0 0 0 0 0 0 0 0 0 0 0 0 0 0 0 0 0 0 0 0 0 0 0 0 0 0 0 0 0 0 0 0 0 0 0 0 0 0 0 0 0 0 0 0 0 0 0 0 0 0 0 0 0 0 0 0 0 0 0 0 0 0 0 0 0 0 0 0 0 0 0 0 0 0 0 0 0 0 0 0 0 0 0 0 0 0 0 0 0 0 0 0 0 0 0 0 0 0 0 0 0 0 0 0 0 0 0 0 0 0 0 0 0 0 0 0 0 0 0 0 0 0 0 0 0 0 0 0 0 0 0 0 0 0 0 0 0 0 0 0 0 0 0 0 0 0 0 0 0 0 0 0 0 0 0 0 0 0 0 0 0 0 0 0 0 0 0 0 0 0 0 0 0 0 0 0 0 0 0 0 0 0 0 0 0 0 0 0 0 0 0 0 0 0 0 0 0 0 0 0 0 0 0 0 0 0 0 0 0 0 0 0 0 0 0 0 0 0 0 0 0 0 0 0 0 0 0 0 0 0 0 0 0 0 0 0 0 0 0 0 0 0 0 0 0 0 0 0 0 0 0 0 0 0 0 0 0 0 0 0 0 0 0 0 0 0 0 0 0 0 0 0 0 0 0 0 0 0 0 0 0 0 0 0 0 0 0 0 0 0 0 0 0 0 0 0 0 0 0 0 0 0 0 0 0 0 0 0 0 0 0 0 0 0 0 0 0 0 0 0 0 0 0 0 0 0 0 0 0 0 0 0 0 0 0 0 0 0 0 0 0 0 0 0 0 0 0 0 0 0 0 0 0 0 0 0 0 
0.02 0.02 0.02 0.02 0.02 0.02 0.02 0.02 0.02 0.02 0.02 0.02 0.02 0.02 0.02 0.02 0.02 0.02 0.02 0.02 0.02 0.02 0.02 0.02 0.02 0.02 0.02 0.02 0.0200001 0.0200001 0.0200001 0.0200001 0.0200001 0.0200002 0.0200002 0.0200002 0.0200003 0.0200003 0.0200004 0.0200004 0.0200005 0.0200006 0.0200006 0.0200007 0.0200009 0.020001 0.0200011 0.0200013 0.0200015 0.0200017 0.0200019 0.0200021 0.0200024 0.0200027 0.020003 0.0200033 0.0200037 0.0200042 0.0200046 0.0200051 0.0200057 0.0200063 0.020007 0.0200077 0.0200085 0.0200093 0.0200102 0.0200112 0.0200123 0.0200135 0.0200147 0.0200161 0.0200176 0.0200191 0.0200208 0.0200226 0.0200245 0.0200265 0.0200286 0.0200308 0.0200332 0.0200356 0.0200382 0.0200408 0.0200435 0.0200462 0.020049 0.0200518 0.0200546 0.0200573 0.0200599 0.0200624 0.0200647 0.0200668 0.0200685 0.0200699 0.0200707 0.020071 0.0200707 0.0200695 0.0200674 0.0200642 0.0200598 0.0200539 0.0200463 0.0200369 0.0200254 0.0200114 0.0199945 0.0199744 0.0199508 0.0199234 0.0198918 0.0198557 0.0198148 0.0197688 0.0197175 0.0196606 0.0195982 0.01953 0.0194561 0.0193768 0.0192922 0.0192026 0.0191084 0.0190099 0.0189077 0.0188022 0.0186936 0.0185825 0.0184692 0.0183541 0.0182374 0.0181195 0.0180003 0.0178801 0.0177586 0.0176357 0.017511 0.0173838 0.0172536 0.0171194 0.0169802 0.0168348 0.016682 0.0165203 0.0163485 0.0161651 0.0159689 0.015759 0.0155343 0.0152943 0.0150383 0.0147659 0.0144771 0.0141724 0.0138518 0.0135144 0.0131595 0.012791 0.0124199 0.0120547 0.0117127 0.0114349 0.0112743 0.0111415 0.0108434 0.0104373 0.00998233 0.00948516 0.00878597 0.00823469 0.00791874 0.00699642 0.00577988 0.00439747 0.00298375 0.00196102 0.000103311 0 0 0 0 0 0 0 0 0 0 0 0 0 0 0 0 0 0 0 0 0 0 0 0 0 0 0 0 0 0 0 0 0 0 0 0 0 0 0 0 0 0 0 0 0 0 0 0 0 0 0 0 0 0 0 0 0 0 0 0 0 0 0 0 0 0 0 0 0 0 0 0 0 0 0 0 0 0 0 0 0 0 0 0 0 0 0 0 0 0 0 0 0 0 0 0 0 0 0 0 0 0 0 0 0 0 0 0 0 0 0 0 0 0 0 0 0 0 0 0 0 0 0 0 0 0 0 0 0 0 0 0 0 0 0 0 0 0 0 0 0 0 0 0 0 0 0 0 0 0 0 0 0 0 0 0 0 0 0 0 0 0 0 0 0 0 0 0 0 0 0 0 0 0 0 0 0 0 0 0 0 0 0 0 0 0 0 0 0 0 0 0 0 0 0 0 0 0 0 0 0 0 0 0 0 0 0 0 0 0 0 0 0 0 0 0 0 0 0 0 0 0 0 0 0 0 0 0 0 0 0 0 0 0 0 0 0 0 0 0 0 0 0 0 0 0 0 0 0 0 0 0 0 0 0 0 0 0 0 0 0 0 0 0 0 0 0 0 0 0 0 0 0 0 0 0 0 0 0 0 0 0 0 0 0 0 0 0 0 0 0 0 0 0 0 0 0 0 0 0 0 0 0 0 0 0 0 0 0 0 0 0 0 0 0 0 0 0 0 0 0 0 0 0 0 0 0 0 0 0 0 0 0 0 0 0 0 0 0 0 0 0 0 0 0 0 0 0 0 0 0 0 0 0 0 0 0 0 0 0 0 0 0 0 0 0 0 0 0 0 0 0 0 0 0 0 0 0 0 0 0 0 0 0 0 0 0 0 0 0 0 0 0 0 0 0 0 0 0 0 0 0 0 0 0 0 0 0 0 0 0 0 0 0 0 0 0 0 0 0 0 0 0 0 0 0 0 0 0 0 0 0 0 0 0 0 0 0 0 0 0 -2.71051e-20 
0.02 0.02 0.02 0.02 0.02 0.02 0.02 0.02 0.02 0.02 0.02 0.02 0.02 0.02 0.02 0.02 0.02 0.02 0.02 0.02 0.02 0.02 0.02 0.02 0.02 0.02 0.02 0.02 0.0200001 0.0200001 0.0200001 0.0200001 0.0200001 0.0200002 0.0200002 0.0200002 0.0200003 0.0200003 0.0200004 0.0200004 0.0200005 0.0200006 0.0200006 0.0200007 0.0200009 0.020001 0.0200011 0.0200013 0.0200015 0.0200016 0.0200019 0.0200021 0.0200024 0.0200026 0.020003 0.0200033 0.0200037 0.0200041 0.0200046 0.0200051 0.0200056 0.0200062 0.0200069 0.0200076 0.0200084 0.0200092 0.0200101 0.0200111 0.0200122 0.0200133 0.0200145 0.0200159 0.0200173 0.0200189 0.0200205 0.0200223 0.0200241 0.0200261 0.0200282 0.0200304 0.0200327 0.0200352 0.0200377 0.0200402 0.0200429 0.0200456 0.0200484 0.0200511 0.0200539 0.0200566 0.0200591 0.0200616 0.0200639 0.0200659 0.0200676 0.0200689 0.0200698 0.0200701 0.0200697 0.0200685 0.0200664 0.0200632 0.0200587 0.0200528 0.0200453 0.0200359 0.0200244 0.0200104 0.0199938 0.019974 0.0199508 0.0199238 0.0198925 0.0198568 0.0198162 0.0197704 0.0197193 0.0196627 0.0196004 0.0195324 0.0194587 0.0193796 0.0192952 0.0192058 0.019112 0.019014 0.0189123 0.0188073 0.0186995 0.0185893 0.0184769 0.0183629 0.0182475 0.018131 0.0180134 0.017895 0.0177754 0.0176547 0.0175324 0.0174079 0.0172807 0.0171498 0.0170144 0.0168731 0.0167249 0.0165683 0.0164019 0.0162245 0.0160347 0.0158314 0.0156138 0.0153809 0.0151321 0.0148665 0.0145839 0.0142835 0.0139647 0.013627 0.0132724 0.0129086 0.0125467 0.0121952 0.0118707 0.0116002 0.0113932 0.0111865 0.0108865 0.0104985 0.0100402 0.00955413 0.00897948 0.0082923 0.0077328 0.00680743 0.00567611 0.00435402 0.00296513 0.00155898 -0.000215578 -0.00224996 -0.00442777 -0.00671371 -0.00940757 -0.0122181 0 0 0 0 0 0 0 0 0 0 0 0 0 0 0 0 0 0 0 0 0 0 0 0 0 0 0 0 0 0 0 0 0 0 0 0 0 0 0 0 0 0 0 0 0 0 0 0 0 0 0 0 0 0 0 0 0 0 0 0 0 0 0 0 0 0 0 0 0 0 0 0 0 0 0 0 0 0 0 0 0 0 0 0 0 0 0 0 0 0 0 0 0 0 0 0 0 0 0 0 0 0 0 0 0 0 0 0 0 0 0 0 0 0 0 0 0 0 0 0 0 0 0 0 0 0 0 0 0 0 0 0 0 0 0 0 0 0 0 0 0 0 0 0 0 0 0 0 0 0 0 0 0 0 0 0 0 0 0 0 0 0 0 0 0 0 0 0 0 0 0 0 0 0 0 0 0 0 0 0 0 0 0 0 0 0 0 0 0 0 0 0 0 0 0 0 0 0 0 0 0 0 0 0 0 0 0 0 0 0 0 0 0 0 0 0 0 0 0 0 0 0 0 0 0 0 0 0 0 0 0 0 0 0 0 0 0 0 0 0 0 0 0 0 0 0 0 0 0 0 0 0 0 0 0 0 0 0 0 0 0 0 0 0 0 0 0 0 0 0 0 0 0 0 0 0 0 0 0 0 0 0 0 0 0 0 0 0 0 0 0 0 0 0 0 0 0 0 0 0 0 0 0 0 0 0 0 0 0 0 0 0 0 0 0 0 0 0 0 0 0 0 0 0 0 0 0 0 0 0 0 0 0 0 0 0 0 0 0 0 0 0 0 0 0 0 0 0 0 0 0 0 0 0 0 0 0 0 0 0 0 0 0 0 0 0 0 0 0 0 0 0 0 0 0 0 0 0 0 0 0 0 0 0 0 0 0 0 0 0 0 0 0 0 0 0 0 0 0 0 0 0 0 0 0 0 0 0 0 0 0 0 0 0 0 0 0 0 0 0 0 0 0 0 0 0 0 0 0 0 0 0 0 0 0 -0.00408951 -3.25261e-19 
0.02 0.02 0.02 0.02 0.02 0.02 0.02 0.02 0.02 0.02 0.02 0.02 0.02 0.02 0.02 0.02 0.02 0.02 0.02 0.02 0.02 0.02 0.02 0.02 0.02 0.02 0.02 0.02 0.0200001 0.0200001 0.0200001 0.0200001 0.0200001 0.0200002 0.0200002 0.0200002 0.0200003 0.0200003 0.0200003 0.0200004 0.0200005 0.0200006 0.0200006 0.0200007 0.0200008 0.020001 0.0200011 0.0200013 0.0200014 0.0200016 0.0200018 0.0200021 0.0200023 0.0200026 0.0200029 0.0200033 0.0200036 0.020004 0.0200045 0.020005 0.0200055 0.0200061 0.0200067 0.0200074 0.0200082 0.020009 0.0200099 0.0200108 0.0200119 0.020013 0.0200142 0.0200155 0.0200169 0.0200184 0.02002 0.0200218 0.0200236 0.0200255 0.0200276 0.0200297 0.020032 0.0200344 0.0200368 0.0200393 0.0200419 0.0200446 0.0200473 0.02005 0.0200527 0.0200553 0.0200578 0.0200602 0.0200624 0.0200644 0.0200661 0.0200673 0.0200681 0.0200684 0.0200679 0.0200667 0.0200646 0.0200614 0.0200569 0.020051 0.0200435 0.0200341 0.0200226 0.0200087 0.0199921 0.0199724 0.0199494 0.0199227 0.0198919 0.0198566 0.0198165 0.0197713 0.0197206 0.0196645 0.0196026 0.0195351 0.0194619 0.0193832 0.0192993 0.0192105 0.0191172 0.0190199 0.0189191 0.018815 0.0187083 0.0185993 0.0184884 0.018376 0.0182624 0.0181479 0.0180326 0.0179165 0.0177998 0.017682 0.017563 0.0174422 0.0173191 0.0171927 0.0170621 0.0169263 0.0167839 0.0166336 0.0164741 0.016304 0.0161219 0.0159268 0.0157176 0.0154933 0.0152529 0.0149954 0.0147196 0.0144244 0.0141089 0.0137735 0.0134224 0.0130652 0.0127152 0.0123819 0.0120731 0.0118027 0.0115594 0.0113129 0.0109998 0.0106137 0.0101627 0.00966903 0.00913191 0.00851053 0.00771336 0.00674465 0.00562888 0.00435621 0.00294493 0.00141587 -0.000362987 -0.00233271 -0.00441285 -0.00662998 -0.00859791 -0.0115545 -0.0141179 -0.0167696 -0.0195709 -0.0240335 -0.0251981 0 0 0 0 0 0 0 0 0 0 0 0 0 0 0 0 0 0 0 0 0 0 0 0 0 0 0 0 0 0 0 0 0 0 0 0 0 0 0 0 0 0 0 0 0 0 0 0 0 0 0 0 0 0 0 0 0 0 0 0 0 0 0 0 0 0 0 0 0 0 0 0 0 0 0 0 0 0 0 0 0 0 0 0 0 0 0 0 0 0 0 0 0 0 0 0 0 0 0 0 0 0 0 0 0 0 0 0 0 0 0 0 0 0 0 0 0 0 0 0 0 0 0 0 0 0 0 0 0 0 0 0 0 0 0 0 0 0 0 0 0 0 0 0 0 0 0 0 0 0 0 0 0 0 0 0 0 0 0 0 0 0 0 0 0 0 0 0 0 0 0 0 0 0 0 0 0 0 0 0 0 0 0 0 0 0 0 0 0 0 0 0 0 0 0 0 0 0 0 0 0 0 0 0 0 0 0 0 0 0 0 0 0 0 0 0 0 0 0 0 0 0 0 0 0 0 0 0 0 0 0 0 0 0 0 0 0 0 0 0 0 0 0 0 0 0 0 0 0 0 0 0 0 0 0 0 0 0 0 0 0 0 0 0 0 0 0 0 0 0 0 0 0 0 0 0 0 0 0 0 0 0 0 0 0 0 0 0 0 0 0 0 0 0 0 0 0 0 0 0 0 0 0 0 0 0 0 0 0 0 0 0 0 0 0 0 0 0 0 0 0 0 0 0 0 0 0 0 0 0 0 0 0 0 0 0 0 0 0 0 0 0 0 0 0 0 0 0 0 0 0 0 0 0 0 0 0 0 0 0 0 0 0 0 0 0 0 0 0 0 0 0 0 0 0 0 0 0 0 0 0 0 0 0 0 0 0 0 0 0 0 0 0 0 0 0 0 0 0 0 0 0 0 0 0 0 0 0 0 0 0 0 0 0 0 0 0 0 0 0 0 0 0 0 0 0 0 0 0 -0.0130912 -0.00682391 0 
0.02 0.02 0.02 0.02 0.02 0.02 0.02 0.02 0.02 0.02 0.02 0.02 0.02 0.02 0.02 0.02 0.02 0.02 0.02 0.02 0.02 0.02 0.02 0.02 0.02 0.02 0.02 0.02 0.0200001 0.0200001 0.0200001 0.0200001 0.0200001 0.0200002 0.0200002 0.0200002 0.0200002 0.0200003 0.0200003 0.0200004 0.0200005 0.0200005 0.0200006 0.0200007 0.0200008 0.0200009 0.0200011 0.0200012 0.0200014 0.0200016 0.0200018 0.020002 0.0200023 0.0200025 0.0200028 0.0200032 0.0200035 0.0200039 0.0200044 0.0200048 0.0200053 0.0200059 0.0200065 0.0200072 0.0200079 0.0200087 0.0200096 0.0200105 0.0200115 0.0200126 0.0200137 0.020015 0.0200164 0.0200178 0.0200194 0.020021 0.0200228 0.0200247 0.0200267 0.0200287 0.0200309 0.0200332 0.0200356 0.0200381 0.0200406 0.0200431 0.0200458 0.0200484 0.020051 0.0200535 0.020056 0.0200583 0.0200604 0.0200623 0.0200639 0.0200651 0.0200658 0.020066 0.0200655 0.0200642 0.0200621 0.0200588 0.0200543 0.0200484 0.0200409 0.0200315 0.0200201 0.0200062 0.0199897 0.0199702 0.0199473 0.0199208 0.0198903 0.0198554 0.0198158 0.0197712 0.0197213 0.0196659 0.0196048 0.019538 0.0194656 0.0193877 0.0193047 0.0192168 0.0191245 0.0190282 0.0189284 0.0188257 0.0187204 0.018613 0.0185039 0.0183936 0.0182823 0.0181703 0.0180578 0.0179449 0.0178315 0.0177176 0.0176027 0.0174865 0.0173684 0.0172474 0.0171228 0.0169934 0.016858 0.0167153 0.0165638 0.0164021 0.0162291 0.0160433 0.0158437 0.015629 0.0153981 0.0151493 0.0148812 0.0145921 0.0142815 0.013951 0.0136062 0.0132582 0.012921 0.0126057 0.012314 0.0120421 0.0117839 0.0115006 0.0111715 0.0107796 0.0103261 0.00981728 0.00924651 0.00857381 0.00774691 0.00675981 0.00562497 0.00434057 0.00288884 0.00128357 -0.000516652 -0.00246537 -0.00452205 -0.00678621 -0.00911549 -0.0116329 -0.014089 -0.0165707 -0.0191911 -0.0223183 -0.0253764 -0.0278051 -0.0301594 -0.033416 -0.0402063 0 0 0 0 0 0 0 0 0 0 0 0 0 0 0 0 0 0 0 0 0 0 0 0 0 0 0 0 0 0 0 0 0 0 0 0 0 0 0 0 0 0 0 0 0 0 0 0 0 0 0 0 0 0 0 0 0 0 0 0 0 0 0 0 0 0 0 0 0 0 0 0 0 0 0 0 0 0 0 0 0 0 0 0 0 0 0 0 0 0 0 0 0 0 0 0 0 0 0 0 0 0 0 0 0 0 0 0 0 0 0 0 0 0 0 0 0 0 0 0 0 0 0 0 0 0 0 0 0 0 0 0 0 0 0 0 0 0 0 0 0 0 0 0 0 0 0 0 0 0 0 0 0 0 0 0 0 0 0 0 0 0 0 0 0 0 0 0 0 0 0 0 0 0 0 0 0 0 0 0 0 0 0 0 0 0 0 0 0 0 0 0 0 0 0 0 0 0 0 0 0 0 0 0 0 0 0 0 0 0 0 0 0 0 0 0 0 0 0 0 0 0 0 0 0 0 0 0 0 0 0 0 0 0 0 0 0 0 0 0 0 0 0 0 0 0 0 0 0 0 0 0 0 0 0 0 0 0 0 0 0 0 0 0 0 0 0 0 0 0 0 0 0 0 0 0 0 0 0 0 0 0 0 0 0 0 0 0 0 0 0 0 0 0 0 0 0 0 0 0 0 0 0 0 0 0 0 0 0 0 0 0 0 0 0 0 0 0 0 0 0 0 0 0 0 0 0 0 0 0 0 0 0 0 0 0 0 0 0 0 0 0 0 0 0 0 0 0 0 0 0 0 0 0 0 0 0 0 0 0 0 0 0 0 0 0 0 0 0 0 0 0 0 0 0 0 0 0 0 0 0 0 0 0 0 0 0 0 0 0 0 0 0 0 0 0 0 0 0 0 0 0 0 0 0 0 0 0 0 0 0 0 0 0 0 0 0 0 0 0 0 0 0 -0.0282703 -0.0241554 -0.0172211 -0.00937545 -4.33681e-19 
0.02 0.02 0.02 0.02 0.02 0.02 0.02 0.02 0.02 0.02 0.02 0.02 0.02 0.02 0.02 0.02 0.02 0.02 0.02 0.02 0.02 0.02 0.02 0.02 0.02 0.02 0.02 0.02 0.0200001 0.0200001 0.0200001 0.0200001 0.0200001 0.0200001 0.0200002 0.0200002 0.0200002 0.0200003 0.0200003 0.0200004 0.0200005 0.0200005 0.0200006 0.0200007 0.0200008 0.0200009 0.020001 0.0200012 0.0200013 0.0200015 0.0200017 0.0200019 0.0200022 0.0200024 0.0200027 0.020003 0.0200034 0.0200038 0.0200042 0.0200046 0.0200051 0.0200057 0.0200062 0.0200069 0.0200076 0.0200083 0.0200091 0.02001 0.020011 0.020012 0.0200131 0.0200144 0.0200156 0.020017 0.0200185 0.0200201 0.0200218 0.0200236 0.0200255 0.0200275 0.0200296 0.0200318 0.0200341 0.0200364 0.0200388 0.0200413 0.0200438 0.0200463 0.0200488 0.0200512 0.0200536 0.0200558 0.0200578 0.0200596 0.0200611 0.0200622 0.0200629 0.020063 0.0200624 0.0200611 0.0200589 0.0200556 0.0200511 0.0200452 0.0200377 0.0200284 0.020017 0.0200032 0.0199868 0.0199674 0.0199448 0.0199185 0.0198883 0.0198538 0.0198147 0.0197707 0.0197215 0.0196669 0.0196068 0.0195411 0.0194698 0.0193932 0.0193113 0.0192246 0.0191336 0.0190387 0.0189404 0.0188393 0.0187357 0.0186303 0.0185235 0.0184156 0.018307 0.018198 0.0180889 0.0179796 0.0178703 0.0177608 0.0176508 0.0175399 0.0174276 0.0173129 0.0171952 0.0170732 0.0169457 0.0168114 0.016669 0.0165169 0.0163538 0.0161784 0.0159894 0.0157853 0.0155646 0.0153253 0.0150654 0.0147836 0.0144799 0.014157 0.0138217 0.0134849 0.0131602 0.0128575 0.0125774 0.0123074 0.0120296 0.0117293 0.0113847 0.0109829 0.0105191 0.00998989 0.00937708 0.0086581 0.00779648 0.00678438 0.00561985 0.00430159 0.00281609 0.00115375 -0.0006654 -0.00263432 -0.0047168 -0.00692604 -0.00931516 -0.0117594 -0.0142116 -0.0166787 -0.0194092 -0.0221494 -0.0249199 -0.0273921 -0.0292321 -0.0322708 -0.0359964 -0.038494 -0.039704 -0.0412344 -0.0442358 -0.0516093 0 0 0 0 0 0 0 0 0 0 0 0 0 0 0 0 0 0 0 0 0 0 0 0 0 0 0 0 0 0 0 0 0 0 0 0 0 0 0 0 0 0 0 0 0 0 0 0 0 0 0 0 0 0 0 0 0 0 0 0 0 0 0 0 0 0 0 0 0 0 0 0 0 0 0 0 0 0 0 0 0 0 0 0 0 0 0 0 0 0 0 0 0 0 0 0 0 0 0 0 0 0 0 0 0 0 0 0 0 0 0 0 0 0 0 0 0 0 0 0 0 0 0 0 0 0 0 0 0 0 0 0 0 0 0 0 0 0 0 0 0 0 0 0 0 0 0 0 0 0 0 0 0 0 0 0 0 0 0 0 0 0 0 0 0 0 0 0 0 0 0 0 0 0 0 0 0 0 0 0 0 0 0 0 0 0 0 0 0 0 0 0 0 0 0 0 0 0 0 0 0 0 0 0 0 0 0 0 0 0 0 0 0 0 0 0 0 0 0 0 0 0 0 0 0 0 0 0 0 0 0 0 0 0 0 0 0 0 0 0 0 0 0 0 0 0 0 0 0 0 0 0 0 0 0 0 0 0 0 0 0 0 0 0 0 0 0 0 0 0 0 0 0 0 0 0 0 0 0 0 0 0 0 0 0 0 0 0 0 0 0 0 0 0 0 0 0 0 0 0 0 0 0 0 0 0 0 0 0 0 0 0 0 0 0 0 0 0 0 0 0 0 0 0 0 0 0 0 0 0 0 0 0 0 0 0 0 0 0 0 0 0 0 0 0 0 0 0 0 0 0 0 0 0 0 0 0 0 0 0 0 0 0 0 0 0 0 0 0 0 0 0 0 0 0 0 0 0 0 0 0 0 0 -0.0409507 -0.0437258 -0.0445544 -0.044942 -0.0451086 -0.0452657 -0.045453 -0.0457131 -0.0460619 -0.0465462 -0.0472364 -0.0472695 -0.0449376 -0.0508749 -0.0457709 -0.0435486 -0.03817 -0.0403048 -0.0416116 -0.042461 -0.0429651 -0.0432661 -0.0434352 -0.0435172 -0.0435434 -0.043529 -0.0434793 -0.0433917 -0.0432541 -0.0430389 -0.0426785 -0.0419421 -0.040394 -0.0383331 -0.035561 -0.0312735 -0.0257512 -0.0189668 -0.0107527 -2.1684e-18 
0.02 0.02 0.02 0.02 0.02 0.02 0.02 0.02 0.02 0.02 0.02 0.02 0.02 0.02 0.02 0.02 0.02 0.02 0.02 0.02 0.02 0.02 0.02 0.02 0.02 0.02 0.02 0.02 0.0200001 0.0200001 0.0200001 0.0200001 0.0200001 0.0200001 0.0200002 0.0200002 0.0200002 0.0200003 0.0200003 0.0200004 0.0200004 0.0200005 0.0200006 0.0200007 0.0200008 0.0200009 0.020001 0.0200011 0.0200013 0.0200015 0.0200016 0.0200019 0.0200021 0.0200023 0.0200026 0.0200029 0.0200032 0.0200036 0.020004 0.0200044 0.0200049 0.0200054 0.0200059 0.0200065 0.0200072 0.0200079 0.0200087 0.0200095 0.0200104 0.0200114 0.0200124 0.0200136 0.0200148 0.0200161 0.0200175 0.020019 0.0200206 0.0200223 0.0200241 0.020026 0.020028 0.0200301 0.0200322 0.0200345 0.0200368 0.0200391 0.0200415 0.0200439 0.0200462 0.0200486 0.0200508 0.0200529 0.0200548 0.0200565 0.0200579 0.0200589 0.0200594 0.0200595 0.0200588 0.0200575 0.0200552 0.0200519 0.0200474 0.0200415 0.020034 0.0200248 0.0200135 0.0199998 0.0199836 0.0199644 0.019942 0.019916 0.0198862 0.0198521 0.0198135 0.0197701 0.0197217 0.019668 0.019609 0.0195445 0.0194746 0.0193994 0.0193191 0.019234 0.0191447 0.0190515 0.018955 0.0188558 0.0187544 0.0186513 0.018547 0.0184419 0.0183364 0.0182309 0.0181255 0.0180204 0.0179156 0.0178111 0.0177065 0.0176016 0.0174957 0.0173881 0.0172778 0.017164 0.0170452 0.0169203 0.0167877 0.016646 0.0164938 0.0163296 0.0161519 0.0159591 0.0157492 0.0155201 0.0152695 0.0149965 0.0147019 0.0143894 0.0140664 0.0137431 0.0134304 0.013136 0.0128588 0.0125871 0.0123024 0.0119858 0.0116245 0.0112091 0.0107296 0.0101731 0.00952395 0.00875701 0.00785501 0.00680731 0.00560469 0.00424447 0.00271827 0.00102521 -0.000821839 -0.00281784 -0.00495855 -0.00720912 -0.00955512 -0.0119621 -0.0144392 -0.0169334 -0.0194837 -0.0222591 -0.0248179 -0.027312 -0.029685 -0.0318946 -0.0350524 -0.0372076 -0.0388058 -0.040738 -0.0416156 -0.0461256 -0.0479428 -0.0486054 -0.0487108 -0.0490467 -0.0506526 -0.0594994 0 0 0 0 0 0 0 0 0 0 0 0 0 0 0 0 0 0 0 0 0 0 0 0 0 0 0 0 0 0 0 0 0 0 0 0 0 0 0 0 0 0 0 0 0 0 0 0 0 0 0 0 0 0 0 0 0 0 0 0 0 0 0 0 0 0 0 0 0 0 0 0 0 0 0 0 0 0 0 0 0 0 0 0 0 0 0 0 0 0 0 0 0 0 0 0 0 0 0 0 0 0 0 0 0 0 0 0 0 0 0 0 0 0 0 0 0 0 0 0 0 0 0 0 0 0 0 0 0 0 0 0 0 0 0 0 0 0 0 0 0 0 0 0 0 0 0 0 0 0 0 0 0 0 0 0 0 0 0 0 0 0 0 0 0 0 0 0 0 0 0 0 0 0 0 0 0 0 0 0 0 0 0 0 0 0 0 0 0 0 0 0 0 0 -0.0489596 -0.0505549 -0.0505313 -0.0500971 -0.0495565 -0.0490187 -0.0485371 -0.048139 -0.0478406 -0.0476496 -0.0475656 -0.0475812 -0.0476837 -0.0478582 -0.0480895 -0.0483641 -0.0486708 -0.049001 -0.0493478 -0.0497062 -0.0500721 -0.0504424 -0.0508147 -0.0511868 -0.0515567 -0.0519225 -0.0522825 -0.0526353 -0.0529795 -0.0533143 -0.053639 -0.0539532 -0.0542565 -0.0545482 -0.0548277 -0.0550938 -0.0553449 -0.055579 -0.0557935 -0.0559853 -0.0561508 -0.0562864 -0.0563885 -0.0564541 -0.0564811 -0.0564686 -0.0564169 -0.0563275 -0.0562025 -0.056045 -0.0558581 -0.0556448 -0.0554082 -0.0551512 -0.0548766 -0.0545871 -0.0542857 -0.0539753 -0.0536593 -0.0533412 -0.0530246 -0.0527133 -0.052411 -0.0521213 -0.0518475 -0.0515926 -0.0513593 -0.0511503 -0.0509676 -0.0508131 -0.0506885 -0.0505951 -0.0505341 -0.0505064 -0.050513 -0.0505547 -0.0506319 -0.0507451 -0.0508942 -0.0510783 -0.0512957 -0.051545 -0.0518253 -0.0521361 -0.0524797 -0.05287 -0.0533083 -0.0537708 -0.0544533 -0.0566271 -0.0673865 0 0 0 0 0 0 0 0 0 0 0 0 0 0 0 0 0 0 0 0 0 0 0 0 0 0 0 0 0 0 0 0 0 0 0 0 0 0 0 0 0 0 0 0 0 0 0 0 0 -0.0456584 -0.0497891 -0.0516592 -0.0523196 -0.052585 -0.0526473 -0.0526006 -0.0524881 -0.0523328 -0.0521457 -0.0519277 -0.0516656 -0.0513083 -0.0508339 -0.0503032 -0.0499649 -0.0497134 -0.0495026 -0.0493166 -0.0491474 -0.0489905 -0.0488432 -0.0487036 -0.0485702 -0.0484416 -0.0483164 -0.0481933 -0.048071 -0.0479481 -0.0478237 -0.0476973 -0.047569 -0.0474396 -0.0473106 -0.0471841 -0.0470638 -0.0469563 -0.0468714 -0.0468155 -0.0467587 -0.0465637 -0.0459833 -0.0449018 -0.0441506 -0.0443009 -0.0446795 -0.0449865 -0.0451822 -0.0453806 -0.0456205 -0.0459366 -0.0462516 -0.0465255 -0.0469437 -0.0467462 -0.0455575 -0.0452587 -0.0445918 -0.0429586 -0.0415473 -0.0415056 -0.0419843 -0.0425471 -0.0429733 -0.0432586 -0.0434313 -0.0435191 -0.0435504 -0.0435404 -0.0434947 -0.0434107 -0.0432748 -0.0430511 -0.0426424 -0.0418659 -0.040505 -0.0385211 -0.0356806 -0.0316468 -0.0264428 -0.0199506 -0.0115812 2.1684e-19 
0.02 0.02 0.02 0.02 0.02 0.02 0.02 0.02 0.02 0.02 0.02 0.02 0.02 0.02 0.02 0.02 0.02 0.02 0.02 0.02 0.02 0.02 0.02 0.02 0.02 0.02 0.02 0.02 0.0200001 0.0200001 0.0200001 0.0200001 0.0200001 0.0200001 0.0200002 0.0200002 0.0200002 0.0200003 0.0200003 0.0200004 0.0200004 0.0200005 0.0200006 0.0200006 0.0200007 0.0200008 0.020001 0.0200011 0.0200012 0.0200014 0.0200016 0.0200018 0.020002 0.0200022 0.0200025 0.0200027 0.020003 0.0200034 0.0200037 0.0200041 0.0200046 0.020005 0.0200056 0.0200061 0.0200067 0.0200074 0.0200081 0.0200089 0.0200097 0.0200106 0.0200116 0.0200127 0.0200138 0.020015 0.0200164 0.0200178 0.0200193 0.0200209 0.0200225 0.0200243 0.0200262 0.0200281 0.0200302 0.0200323 0.0200344 0.0200366 0.0200389 0.0200411 0.0200433 0.0200455 0.0200476 0.0200496 0.0200513 0.0200529 0.0200542 0.0200551 0.0200556 0.0200555 0.0200548 0.0200534 0.0200511 0.0200477 0.0200433 0.0200374 0.02003 0.0200208 0.0200096 0.0199962 0.0199801 0.0199612 0.0199391 0.0199135 0.0198841 0.0198506 0.0198126 0.0197699 0.0197223 0.0196697 0.0196118 0.0195486 0.0194802 0.0194066 0.0193281 0.019245 0.0191576 0.0190665 0.0189722 0.0188753 0.0187763 0.0186758 0.0185744 0.0184724 0.0183704 0.0182686 0.0181673 0.0180668 0.0179669 0.0178678 0.0177692 0.0176707 0.0175717 0.0174717 0.0173696 0.0172645 0.0171551 0.0170402 0.0169181 0.0167875 0.0166468 0.0164944 0.0163286 0.0161476 0.015949 0.0157308 0.0154908 0.0152285 0.0149455 0.0146463 0.0143383 0.01403 0.0137295 0.0134412 0.0131624 0.0128828 0.0125861 0.0122563 0.0118803 0.011447 0.0109443 0.0103562 0.00966476 0.00885451 0.00790995 0.00682082 0.0055774 0.00417372 0.00260886 0.000884049 -0.000996008 -0.00301303 -0.00516232 -0.00742684 -0.0097825 -0.0122055 -0.014697 -0.0172675 -0.0198412 -0.0224258 -0.0249631 -0.0274407 -0.0300555 -0.0325019 -0.0348068 -0.0367346 -0.0385579 -0.0407359 -0.0431391 -0.0450954 -0.046665 -0.0476423 -0.0482018 -0.0489599 -0.0504473 -0.0531588 -0.0546432 -0.0551273 -0.0562988 -0.0572915 -0.0576438 -0.0578625 -0.0582562 -0.0584741 -0.0615082 -0.0710271 0 0 0 0 0 0 0 0 0 0 0 0 0 0 0 0 0 0 0 0 0 0 0 0 0 -0.0639287 -0.0677269 -0.0686154 -0.0687371 -0.0685735 -0.0682945 -0.0679477 -0.0675545 -0.0671256 -0.06667 -0.066197 -0.0657161 -0.0652366 -0.0647679 -0.0643197 -0.0639015 -0.0635229 -0.0631928 -0.0629191 -0.0627053 -0.0625489 -0.0624463 -0.0624133 -0.0624961 -0.0628422 -0.0640209 -0.0700126 -0.0669185 0 0 0 0 0 0 0 0 0 0 0 0 0 0 0 0 0 0 0 0 0 0 0 0 0 0 0 0 0 0 0 0 0 0 0 0 0 0 0 0 0 0 0 0 0 0 0 0 0 0 0 0 0 0 0 0 0 0 0 0 0 0 0 0 0 0 0 0 0 0 0 0 0 0 0 0 0 0 0 0 0 0 0 0 0 0 0 0 0 0 0 0 0 0 0 0 0 0 0 0 0 0 0 0 0 0 0 0 0 0 0 0 0 0 0 0 0 0 0 0 0 -0.0573969 -0.0610838 -0.0617261 -0.0609775 -0.0590241 -0.0574125 -0.0560299 -0.0544992 -0.0528308 -0.0513254 -0.0507698 -0.0508234 -0.0506106 -0.0501538 -0.0496146 -0.0490774 -0.0485956 -0.048196 -0.0478951 -0.0477 -0.0476106 -0.0476198 -0.0477158 -0.047884 -0.0481096 -0.0483792 -0.0486817 -0.0490079 -0.0493509 -0.0497054 -0.0500671 -0.050433 -0.0508004 -0.0511674 -0.0515321 -0.0518931 -0.0522488 -0.0525983 -0.0529403 -0.0532742 -0.0535993 -0.0539148 -0.0542203 -0.0545148 -0.0547972 -0.0550663 -0.0553203 -0.055557 -0.0557737 -0.0559674 -0.0561345 -0.0562715 -0.0563749 -0.0564418 -0.0564704 -0.0564598 -0.0564102 -0.0563231 -0.0562005 -0.0560454 -0.0558605 -0.0556491 -0.055414 -0.0551581 -0.0548843 -0.0545955 -0.0542946 -0.0539848 -0.0536695 -0.0533523 -0.0530369 -0.0527269 -0.0524261 -0.0521378 -0.0518653 -0.0516115 -0.051379 -0.0511701 -0.050987 -0.0508315 -0.050705 -0.0506092 -0.0505451 -0.0505141 -0.0505171 -0.0505552 -0.0506291 -0.0507392 -0.0508856 -0.0510671 -0.0512821 -0.0515288 -0.0518072 -0.0521172 -0.0524625 -0.0528636 -0.05335 -0.0538952 -0.0547165 -0.0564589 -0.0596037 -0.0607775 -0.0604682 -0.0606947 -0.0609759 -0.0613432 -0.0617707 -0.0622034 -0.0626002 -0.0628472 -0.0628159 -0.0627114 -0.0628006 -0.0629939 -0.0632528 -0.063551 -0.0638669 -0.0641814 -0.0644771 -0.0647395 -0.0649569 -0.0651204 -0.0652242 -0.0652648 -0.0652411 -0.0651542 -0.0650065 -0.0648021 -0.0645464 -0.064246 -0.0639079 -0.0635398 -0.0631482 -0.0627269 -0.0622116 -0.0615509 -0.0609499 -0.0603651 -0.0597835 -0.0592075 -0.0586433 -0.0580957 -0.0575677 -0.0570612 -0.0565768 -0.0561098 -0.0556293 -0.0550438 -0.0541777 -0.0529328 -0.0513397 -0.0513144 -0.0519678 -0.0523937 -0.0526172 -0.0526746 -0.0526314 -0.0525205 -0.0523628 -0.0521652 -0.0519256 -0.0516318 -0.0512657 -0.0508386 -0.0504267 -0.0500973 -0.049835 -0.0496128 -0.0494169 -0.0492391 -0.0490747 -0.0489205 -0.0487744 -0.0486346 -0.0484995 -0.0483676 -0.0482375 -0.0481077 -0.0479773 -0.0478454 -0.0477119 -0.0475774 -0.0474429 -0.0473105 -0.0471832 -0.0470655 -0.0469623 -0.0468707 -0.0467644 -0.0465797 -0.0462226 -0.0456485 -0.044961 -0.0446178 -0.044691 -0.0449166 -0.0451632 -0.0454007 -0.0456706 -0.0459808 -0.0462629 -0.0466041 -0.0466999 -0.0466203 -0.0463639 -0.0454872 -0.0444909 -0.0436315 -0.042912 -0.0422263 -0.0421258 -0.0423874 -0.0427444 -0.0430646 -0.0433001 -0.0434513 -0.0435304 -0.0435577 -0.0435449 -0.0434963 -0.0434077 -0.0432603 -0.0430046 -0.0425403 -0.0417242 -0.0404018 -0.0384458 -0.0356556 -0.0318389 -0.0269106 -0.0206037 -0.0121172 -3.46945e-18 