# vtk DataFile Version 2.0
iteration 1971
ASCII

DATASET STRUCTURED_POINTS
DIMENSIONS 621 64 1
ORIGIN 0 0 0
SPACING 0.00161031 0.00161031 0.00161031

POINT_DATA 39744
SCALARS P float 1
LOOKUP_TABLE default
0 0 0 0 0 0 0 0 0 0 0 0 0 0 0 0 0 0 0 0 0 0 0 0 0 0 0 0 0 0 0 0 0 0 0 0 0 0 0 0 0 0 0 0 0 0 0 0 0 0 0 0 0 0 0 0 0 0 0 0 0 0 0 0 0 0 0 0 0 0 0 0 0 0 0 0 0 0 0 0 0 0 0 0 0 0 0 0 0 0 0 0 0 0 0 0 0 0 0 0 0 0 0 0 0 0 0 0 0 0 0 0 0 0 0 0 0 0 0 0 0 0 0 0 0 0 0 0 0 0 0 0 0 0 0 0 0 0 0 0 0 0 0 0 0 0 0 0 0 0 0 0 0 0 0 0 0 0 0 0 0 0 0 0 0 0 0 0 0 0 0 0 0 0 0 0 0 0 0 0 0 0 0 0 0 0 0 0 0 0 0 0 0 0 0 0 0 0 0 0 0 0 0 0 0 0 0 0 0 0 0 0 0 0 0 0 0 0 0 0 0 0 0 0 0 0 0 0 0 0 0 0 0 0 0 0 0 0 0 0 0 0 0 0 0 0 0 0 0 0 0 0 0 0 0 0 0 0 0 0 0 0 0 0 0 0 0 0 0 0 0 0 0 0 0 0 0 0 0 0 0 0 0 0 0 0 0 0 0 0 0 0 0 0 0 0 0 0 0 0 0 0 0 0 0 0 0 0 0 0 0 0 0 0 0 0 0 0 0 0 0 0 0 0 0 0 0 0 0 0 0 0 0 0 0 0 0 0 0 0 0 0 0 0 0 0 0 0 0 0 0 0 0 0 0 0 0 0 0 0 0 0 0 0 0 0 0 0 0 0 0 0 0 0 0 0 0 0 0 0 0 0 0 0 0 0 0 0 0 0 0 0 0 0 0 0 0 0 0 0 0 0 0 0 0 0 0 0 0 0 0 0 0 0 0 0 0 0 0 0 0 0 0 0 0 0 0 0 0 0 0 0 0 0 0 0 0 0 0 0 0 0 0 0 0 0 0 0 0 0 0 0 0 0 0 0 0 0 0 0 0 0 0 0 0 0 0 0 0 0 0 0 0 0 0 0 0 0 0 0 0 0 0 0 0 0 0 0 0 0 0 0 0 0 0 0 0 0 0 0 0 0 0 0 0 0 0 0 0 0 0 0 0 0 0 0 0 0 0 0 0 0 0 0 0 0 0 0 0 0 0 0 0 0 0 0 0 0 0 0 0 0 0 0 0 0 0 0 0 0 0 0 0 0 0 0 0 0 0 0 0 0 0 0 0 0 0 0 0 0 0 0 0 0 0 0 0 0 0 0 0 0 0 0 0 0 0 0 0 0 0 0 0 0 0 0 0 0 0 0 0 0 0 0 0 0 0 0 0 0 0 0 0 0 0 0 0 0 0 0 0 
0.02 0.02 0.02 0.02 0.02 0.02 0.02 0.02 0.02 0.02 0.02 0.02 0.02 0.02 0.02 0.02 0.02 0.02 0.02 0.02 0.02 0.02 0.02 0.02 0.02 0.02 0.02 0.02 0.02 0.02 0.02 0.02 0.02 0.02 0.02 0.02 0.02 0.02 0.02 0.02 0.02 0.02 0.02 0.02 0.02 0.02 0.02 0.02 0.02 0.02 0.02 0.02 0.02 0.02 0.02 0.02 0.02 0.02 0.02 0.02 0.02 0.02 0.02 0.02 0.02 0.02 0.02 0.02 0.02 0.02 0.02 0.02 0.02 0.02 0.02 0.02 0.02 0.02 0.02 0.02 0.02 0.02 0.02 0.02 0.02 0.02 0.02 0.02 0.02 0.02 0.02 0.02 0.02 0.02 0.02 0.02 0.02 0.02 0.02 0.02 0.02 0.02 0.02 0.02 0.02 0.02 0.02 0.02 0.02 0.02 0.02 0.02 0.02 0.02 0.02 0.02 0.02 0.02 0.02 0.02 0.02 0.02 0.02 0.02 0.02 0.02 0.02 0.02 0.02 0.02 0.02 0.02 0.02 0.02 0.02 0.02 0.02 0.02 0.02 0.02 0.02 0.02 0.02 0.02 0.02 0.02 0.02 0.02 0.02 0.02 0.02 0.02 0.02 0.02 0.02 0.02 0.02 0.02 0.02 0.02 0.02 0.02 0.02 0.02 0.02 0.02 0.02 0.02 0.02 0.02 0.02 0.02 0.02 0.02 0.02 0.02 0.02 0.02 0.02 0.02 0.0199999 0.0199999 0.0199999 0.0199999 0.0199999 0.0199999 0.0199998 0.0199998 0.0199998 0.0199997 0.0199997 0.0199996 0.0199996 0.0199995 0.0199995 0.0199994 0.0199993 0.0199993 0.0199992 0.0199991 0.019999 0.0199989 0.0199987 0.0199986 0.0199984 0.0199983 0.0199981 0.0199979 0.0199977 0.0199975 0.0199973 0.019997 0.0199968 0.0199965 0.0199962 0.0199958 0.0199955 0.0199951 0.0199947 0.0199943 0.0199939 0.0199934 0.0199929 0.0199924 0.0199919 0.0199913 0.0199907 0.0199901 0.0199895 0.0199888 0.0199882 0.0199875 0.0199867 0.019986 0.0199852 0.0199844 0.0199836 0.0199828 0.019982 0.0199811 0.0199803 0.0199794 0.0199785 0.0199776 0.0199768 0.0199759 0.019975 0.0199742 0.0199733 0.0199725 0.0199717 0.0199709 0.0199702 0.0199694 0.0199687 0.0199681 0.0199675 0.019967 0.0199665 0.0199661 0.0199657 0.0199654 0.0199652 0.0199651 0.019965 0.0199651 0.0199652 0.0199654 0.0199657 0.019966 0.0199665 0.0199671 0.0199679 0.0199688 0.0199699 0.0199711 0.0199725 0.0199741 0.0199758 0.0199777 0.0199798 0.019982 0.0199845 0.0199871 0.0199899 0.019993 0.0199962 0.0199997 0.0200034 0.0200073 0.0200114 0.0200158 0.0200204 0.0200252 0.0200303 0.0200356 0.0200412 0.020047 0.0200531 0.0200594 0.020066 0.0200729 0.02008 0.0200873 0.0200949 0.0201028 0.0201109 0.0201193 0.0201279 0.0201367 0.0201458 0.0201552 0.0201647 0.0201745 0.0201845 0.0201947 0.020205 0.0202156 0.0202264 0.0202373 0.0202484 0.0202596 0.0202709 0.0202824 0.020294 0.0203056 0.0203173 0.0203291 0.0203409 0.0203528 0.0203646 0.0203765 0.0203883 0.0204 0.0204117 0.0204233 0.0204348 0.0204461 0.0204573 0.0204683 0.0204792 0.0204898 0.0205001 0.0205105 0.020521 0.0205307 0.0205408 0.0205507 0.0205605 0.0205699 0.0205791 0.0205881 0.0205968 0.0206052 0.0206133 0.0206211 0.0206286 0.0206357 0.0206426 0.020649 0.0206551 0.0206609 0.0206662 0.0206712 0.0206757 0.0206799 0.0206836 0.0206869 0.0206898 0.0206922 0.0206942 0.0206957 0.0206968 0.0206974 0.0206975 0.0206971 0.0206962 0.0206949 0.0206931 0.0206908 0.020688 0.0206848 0.020681 0.0206768 0.0206722 0.0206671 0.0206616 0.0206556 0.0206492 0.0206425 0.0206353 0.0206279 0.0206201 0.020612 0.0206036 0.020595 0.0205861 0.0205771 0.020568 0.0205587 0.0205494 0.02054 0.0205307 0.0205214 0.0205121 0.020503 0.0204941 0.0204854 0.0204769 0.0204686 0.0204607 0.0204531 0.0204459 0.0204391 0.0204327 0.0204268 0.0204214 0.0204165 0.0204122 0.0204085 0.0204054 0.0204029 0.0204012 0.0204001 0.0203998 0.0204002 0.0204013 0.0204031 0.0204056 0.0204087 0.0204123 0.0204164 0.0204207 0.0204251 0.0204293 0.0204332 0.0204363 0.0204384 0.020439 0.0204378 0.0204343 0.020428 0.0204184 0.0204049 0.0203871 0.0203644 0.0203361 0.0203015 0.0202598 0.0202099 0.0201505 0.02008 0.0199963 0.0198968 0.0197785 0.019638 0.019472 0.0192774 0.0190516 0.0187935 0.0185027 0.0181805 0.0178301 0.0174574 0.0170689 0.0166765 0.0163146 0.01601 0.0159737 0.016541 0.0193877 0.0189137 0 0 0 0 0 0 0 0 0 0 0 0 0 0 0 0 0 0 0 0 0 0 0 0 0 0 0 0 0 0 0 0 0 0 0 0 0 0 0 0 0 0 0 0 0 0 0 0 0 0 0 0 0 0 0 0 0 0 0 0 0 0 0 0 0 0 0 0 0 0 0 0 0 0 0 0 0 0 0 0 0 0 0 0 0 0 0 0 0 0 0 0 0 0 0 0 0 0 0 0 0 0 0 0 0 0 0 0 0 0 0 0 0 0 0 0 0 0 0 0 0 0 0 0 0 0 0 0 0 0 0 0 0 0 0 0 0 0 0 0 0 0 0 0 0 0 0 0 0 
0.02 0.02 0.02 0.02 0.02 0.02 0.02 0.02 0.02 0.02 0.02 0.02 0.02 0.02 0.02 0.02 0.02 0.02 0.02 0.02 0.02 0.02 0.02 0.02 0.02 0.02 0.02 0.02 0.02 0.02 0.02 0.02 0.02 0.02 0.02 0.02 0.02 0.02 0.02 0.02 0.02 0.02 0.02 0.02 0.02 0.02 0.02 0.02 0.02 0.02 0.02 0.02 0.02 0.02 0.02 0.02 0.02 0.02 0.02 0.02 0.02 0.02 0.02 0.02 0.02 0.02 0.02 0.02 0.02 0.02 0.02 0.02 0.02 0.02 0.02 0.02 0.02 0.02 0.02 0.02 0.02 0.02 0.02 0.02 0.02 0.02 0.02 0.02 0.02 0.02 0.02 0.02 0.02 0.02 0.02 0.02 0.02 0.02 0.02 0.02 0.02 0.02 0.02 0.02 0.02 0.02 0.02 0.02 0.02 0.02 0.02 0.02 0.02 0.02 0.02 0.02 0.02 0.02 0.02 0.02 0.02 0.02 0.02 0.02 0.02 0.02 0.02 0.02 0.02 0.02 0.02 0.02 0.02 0.02 0.02 0.02 0.02 0.02 0.02 0.02 0.02 0.02 0.02 0.02 0.02 0.02 0.02 0.02 0.02 0.02 0.02 0.02 0.02 0.02 0.02 0.02 0.02 0.02 0.02 0.02 0.02 0.02 0.02 0.02 0.02 0.02 0.02 0.02 0.02 0.02 0.02 0.02 0.02 0.02 0.02 0.02 0.02 0.02 0.02 0.02 0.0199999 0.0199999 0.0199999 0.0199999 0.0199999 0.0199999 0.0199998 0.0199998 0.0199998 0.0199997 0.0199997 0.0199997 0.0199996 0.0199995 0.0199995 0.0199994 0.0199993 0.0199993 0.0199992 0.0199991 0.019999 0.0199989 0.0199987 0.0199986 0.0199985 0.0199983 0.0199981 0.0199979 0.0199977 0.0199975 0.0199973 0.019997 0.0199968 0.0199965 0.0199962 0.0199958 0.0199955 0.0199951 0.0199947 0.0199943 0.0199939 0.0199934 0.0199929 0.0199924 0.0199919 0.0199913 0.0199908 0.0199902 0.0199895 0.0199889 0.0199882 0.0199875 0.0199868 0.019986 0.0199853 0.0199845 0.0199837 0.0199828 0.019982 0.0199812 0.0199803 0.0199794 0.0199786 0.0199777 0.0199768 0.0199759 0.0199751 0.0199742 0.0199734 0.0199725 0.0199717 0.0199709 0.0199702 0.0199695 0.0199688 0.0199681 0.0199675 0.019967 0.0199665 0.0199661 0.0199657 0.0199654 0.0199652 0.0199651 0.019965 0.0199651 0.0199652 0.0199654 0.0199657 0.0199661 0.0199665 0.0199672 0.019968 0.0199689 0.01997 0.0199712 0.0199726 0.0199742 0.0199759 0.0199778 0.0199799 0.0199821 0.0199846 0.0199872 0.01999 0.0199931 0.0199963 0.0199998 0.0200035 0.0200074 0.0200115 0.0200159 0.0200205 0.0200253 0.0200304 0.0200357 0.0200413 0.0200471 0.0200532 0.0200595 0.0200661 0.020073 0.02008 0.0200874 0.020095 0.0201028 0.0201109 0.0201193 0.0201279 0.0201367 0.0201458 0.0201551 0.0201646 0.0201743 0.0201842 0.0201944 0.0202047 0.0202152 0.0202259 0.0202368 0.0202478 0.0202589 0.0202702 0.0202815 0.020293 0.0203045 0.0203161 0.0203278 0.0203395 0.0203512 0.0203628 0.0203745 0.0203861 0.0203977 0.0204093 0.0204207 0.020432 0.0204432 0.0204543 0.0204653 0.0204762 0.020487 0.0204974 0.0205079 0.0205184 0.0205287 0.0205388 0.0205487 0.0205584 0.0205678 0.020577 0.0205859 0.0205946 0.0206029 0.020611 0.0206188 0.0206262 0.0206334 0.0206402 0.0206466 0.0206527 0.0206584 0.0206637 0.0206687 0.0206732 0.0206773 0.0206811 0.0206843 0.0206872 0.0206896 0.0206916 0.0206931 0.0206941 0.0206947 0.0206948 0.0206944 0.0206935 0.0206922 0.0206904 0.0206881 0.0206853 0.020682 0.0206783 0.0206741 0.0206694 0.0206643 0.0206588 0.0206528 0.0206464 0.0206396 0.0206325 0.020625 0.0206172 0.0206091 0.0206007 0.0205921 0.0205832 0.0205742 0.020565 0.0205557 0.0205464 0.020537 0.0205276 0.0205183 0.020509 0.0204999 0.0204909 0.0204821 0.0204736 0.0204653 0.0204573 0.0204496 0.0204423 0.0204355 0.020429 0.020423 0.0204175 0.0204125 0.0204081 0.0204043 0.0204011 0.0203985 0.0203967 0.0203955 0.0203951 0.0203954 0.0203964 0.0203981 0.0204005 0.0204035 0.0204071 0.0204111 0.0204154 0.0204198 0.0204241 0.020428 0.0204312 0.0204334 0.0204342 0.0204332 0.02043 0.020424 0.0204147 0.0204017 0.0203844 0.0203623 0.0203346 0.0203006 0.0202596 0.0202104 0.0201519 0.0200822 0.0199994 0.0199008 0.0197835 0.0196442 0.0194795 0.0192861 0.0190619 0.0188052 0.0185158 0.018195 0.0178455 0.017474 0.0170938 0.0167207 0.0164056 0.0161862 0.0161713 0.0165709 0.017774 0.0190089 0.020174 0 0 0 0 0 0 0 0 0 0 0 0 0 0 0 0 0 0 0 0 0 0 0 0 0 0 0 0 0 0 0 0 0 0 0 0 0 0 0 0 0 0 0 0 0 0 0 0 0 0 0 0 0 0 0 0 0 0 0 0 0 0 0 0 0 0 0 0 0 0 0 0 0 0 0 0 0 0 0 0 0 0 0 0 0 0 0 0 0 0 0 0 0 0 0 0 0 0 0 0 0 0 0 0 0 0 0 0 0 0 0 0 0 0 0 0 0 0 0 0 0 0 0 0 0 0 0 0 0 0 0 0 0 0 0 0 0 0 0 0 0 0 0 0 0 0 0 0 
0.02 0.02 0.02 0.02 0.02 0.02 0.02 0.02 0.02 0.02 0.02 0.02 0.02 0.02 0.02 0.02 0.02 0.02 0.02 0.02 0.02 0.02 0.02 0.02 0.02 0.02 0.02 0.02 0.02 0.02 0.02 0.02 0.02 0.02 0.02 0.02 0.02 0.02 0.02 0.02 0.02 0.02 0.02 0.02 0.02 0.02 0.02 0.02 0.02 0.02 0.02 0.02 0.02 0.02 0.02 0.02 0.02 0.02 0.02 0.02 0.02 0.02 0.02 0.02 0.02 0.02 0.02 0.02 0.02 0.02 0.02 0.02 0.02 0.02 0.02 0.02 0.02 0.02 0.02 0.02 0.02 0.02 0.02 0.02 0.02 0.02 0.02 0.02 0.02 0.02 0.02 0.02 0.02 0.02 0.02 0.02 0.02 0.02 0.02 0.02 0.02 0.02 0.02 0.02 0.02 0.02 0.02 0.02 0.02 0.02 0.02 0.02 0.02 0.02 0.02 0.02 0.02 0.02 0.02 0.02 0.02 0.02 0.02 0.02 0.02 0.02 0.02 0.02 0.02 0.02 0.02 0.02 0.02 0.02 0.02 0.02 0.02 0.02 0.02 0.02 0.02 0.02 0.02 0.02 0.02 0.02 0.02 0.02 0.02 0.02 0.02 0.02 0.02 0.02 0.02 0.02 0.02 0.02 0.02 0.02 0.02 0.02 0.02 0.02 0.02 0.02 0.02 0.02 0.02 0.02 0.02 0.02 0.02 0.02 0.02 0.02 0.02 0.02 0.02 0.02 0.0199999 0.0199999 0.0199999 0.0199999 0.0199999 0.0199999 0.0199998 0.0199998 0.0199998 0.0199997 0.0199997 0.0199997 0.0199996 0.0199995 0.0199995 0.0199994 0.0199993 0.0199993 0.0199992 0.0199991 0.019999 0.0199989 0.0199987 0.0199986 0.0199985 0.0199983 0.0199981 0.0199979 0.0199977 0.0199975 0.0199973 0.019997 0.0199968 0.0199965 0.0199962 0.0199958 0.0199955 0.0199951 0.0199947 0.0199943 0.0199939 0.0199934 0.019993 0.0199925 0.0199919 0.0199914 0.0199908 0.0199902 0.0199895 0.0199889 0.0199882 0.0199875 0.0199868 0.019986 0.0199853 0.0199845 0.0199837 0.0199829 0.019982 0.0199812 0.0199803 0.0199795 0.0199786 0.0199777 0.0199768 0.019976 0.0199751 0.0199742 0.0199734 0.0199726 0.0199718 0.019971 0.0199702 0.0199695 0.0199688 0.0199682 0.0199676 0.019967 0.0199665 0.0199661 0.0199657 0.0199654 0.0199652 0.0199651 0.0199651 0.0199651 0.0199652 0.0199655 0.0199658 0.0199662 0.0199667 0.0199673 0.0199681 0.019969 0.0199701 0.0199714 0.0199728 0.0199743 0.019976 0.019978 0.01998 0.0199823 0.0199848 0.0199874 0.0199903 0.0199933 0.0199966 0.02 0.0200037 0.0200077 0.0200118 0.0200162 0.0200208 0.0200257 0.0200308 0.0200361 0.0200417 0.0200475 0.0200536 0.0200599 0.0200665 0.0200734 0.0200805 0.0200878 0.0200954 0.0201032 0.0201113 0.0201197 0.0201282 0.020137 0.0201461 0.0201553 0.0201648 0.0201745 0.0201844 0.0201945 0.0202047 0.0202152 0.0202258 0.0202365 0.0202474 0.0202585 0.0202696 0.0202808 0.0202921 0.0203035 0.020315 0.0203265 0.020338 0.0203495 0.020361 0.0203725 0.020384 0.0203954 0.0204068 0.0204181 0.0204293 0.0204405 0.0204516 0.0204625 0.0204734 0.0204842 0.020495 0.0205055 0.0205159 0.0205262 0.0205362 0.020546 0.0205556 0.0205649 0.020574 0.0205829 0.0205915 0.0205998 0.0206078 0.0206155 0.0206228 0.0206299 0.0206366 0.020643 0.020649 0.0206546 0.0206599 0.0206647 0.0206692 0.0206732 0.0206769 0.0206801 0.0206829 0.0206852 0.0206871 0.0206885 0.0206895 0.02069 0.02069 0.0206895 0.0206886 0.0206872 0.0206852 0.0206829 0.02068 0.0206767 0.0206729 0.0206686 0.0206639 0.0206587 0.0206531 0.0206471 0.0206406 0.0206338 0.0206266 0.0206191 0.0206112 0.020603 0.0205946 0.0205859 0.020577 0.0205679 0.0205587 0.0205494 0.02054 0.0205306 0.0205212 0.0205118 0.0205025 0.0204933 0.0204843 0.0204754 0.0204668 0.0204585 0.0204505 0.0204427 0.0204354 0.0204284 0.0204219 0.0204158 0.0204103 0.0204052 0.0204007 0.0203968 0.0203935 0.0203909 0.0203889 0.0203876 0.0203871 0.0203873 0.0203882 0.0203899 0.0203922 0.0203952 0.0203987 0.0204027 0.020407 0.0204114 0.0204158 0.0204198 0.0204232 0.0204257 0.0204268 0.0204261 0.0204233 0.0204178 0.0204092 0.0203968 0.0203802 0.0203588 0.0203319 0.0202988 0.0202587 0.0202105 0.0201528 0.0200841 0.0200022 0.0199045 0.019788 0.0196495 0.0194855 0.0192929 0.0190694 0.0188136 0.0185251 0.018206 0.0178608 0.0174985 0.0171382 0.0167972 0.0165304 0.0163769 0.0163724 0.0167392 0.0174241 0.0183115 0.019789 0 0 0 0 0 0.00374849 0.0016212 0.000455545 -0.000955927 -0.00287432 -0.00500179 0 0 0 0 0 0 0 0 0 0 0 0 0 0 0 0 0 0 0 0 0 0 0 0 0 0 0 0 0 0 0 0 0 0 0 0 0 0 0 0 0 0 0 0 0 0 0 0 0 0 0 0 0 0 0 0 0 0 0 0 0 0 0 0 0 0 0 0 0 0 0 0 0 0 0 0 0 0 0 0 0 0 0 0 0 0 0 0 0 0 0 0 0 0 0 0 0 0 0 0 0 0 0 0 0 0 0 0 0 0 0 0 0 0 0 0 0 0 0 0 0 0 0 0 0 0 0 0 0 0 0 0 0 0 0 0 0 
0.02 0.02 0.02 0.02 0.02 0.02 0.02 0.02 0.02 0.02 0.02 0.02 0.02 0.02 0.02 0.02 0.02 0.02 0.02 0.02 0.02 0.02 0.02 0.02 0.02 0.02 0.02 0.02 0.02 0.02 0.02 0.02 0.02 0.02 0.02 0.02 0.02 0.02 0.02 0.02 0.02 0.02 0.02 0.02 0.02 0.02 0.02 0.02 0.02 0.02 0.02 0.02 0.02 0.02 0.02 0.02 0.02 0.02 0.02 0.02 0.02 0.02 0.02 0.02 0.02 0.02 0.02 0.02 0.02 0.02 0.02 0.02 0.02 0.02 0.02 0.02 0.02 0.02 0.02 0.02 0.02 0.02 0.02 0.02 0.02 0.02 0.02 0.02 0.02 0.02 0.02 0.02 0.02 0.02 0.02 0.02 0.02 0.02 0.02 0.02 0.02 0.02 0.02 0.02 0.02 0.02 0.02 0.02 0.02 0.02 0.02 0.02 0.02 0.02 0.02 0.02 0.02 0.02 0.02 0.02 0.02 0.02 0.02 0.02 0.02 0.02 0.02 0.02 0.02 0.02 0.02 0.02 0.02 0.02 0.02 0.02 0.02 0.02 0.02 0.02 0.02 0.02 0.02 0.02 0.02 0.02 0.02 0.02 0.02 0.02 0.02 0.02 0.02 0.02 0.02 0.02 0.02 0.02 0.02 0.02 0.02 0.02 0.02 0.02 0.02 0.02 0.02 0.02 0.02 0.02 0.02 0.02 0.02 0.02 0.02 0.02 0.02 0.02 0.02 0.02 0.0199999 0.0199999 0.0199999 0.0199999 0.0199999 0.0199999 0.0199998 0.0199998 0.0199998 0.0199997 0.0199997 0.0199996 0.0199996 0.0199995 0.0199995 0.0199994 0.0199993 0.0199993 0.0199992 0.0199991 0.019999 0.0199989 0.0199987 0.0199986 0.0199985 0.0199983 0.0199981 0.0199979 0.0199977 0.0199975 0.0199973 0.019997 0.0199968 0.0199965 0.0199962 0.0199959 0.0199955 0.0199951 0.0199948 0.0199943 0.0199939 0.0199934 0.019993 0.0199925 0.0199919 0.0199914 0.0199908 0.0199902 0.0199896 0.0199889 0.0199882 0.0199875 0.0199868 0.0199861 0.0199853 0.0199845 0.0199837 0.0199829 0.0199821 0.0199812 0.0199804 0.0199795 0.0199786 0.0199778 0.0199769 0.019976 0.0199752 0.0199743 0.0199735 0.0199726 0.0199718 0.019971 0.0199703 0.0199696 0.0199689 0.0199682 0.0199677 0.0199671 0.0199666 0.0199662 0.0199658 0.0199656 0.0199654 0.0199652 0.0199652 0.0199652 0.0199654 0.0199656 0.019966 0.0199664 0.0199669 0.0199676 0.0199684 0.0199693 0.0199704 0.0199717 0.0199731 0.0199746 0.0199764 0.0199783 0.0199804 0.0199827 0.0199851 0.0199878 0.0199907 0.0199937 0.019997 0.0200005 0.0200042 0.0200082 0.0200123 0.0200167 0.0200214 0.0200262 0.0200313 0.0200367 0.0200423 0.0200481 0.0200542 0.0200606 0.0200672 0.020074 0.0200811 0.0200884 0.020096 0.0201038 0.0201119 0.0201202 0.0201287 0.0201375 0.0201465 0.0201557 0.0201651 0.0201747 0.0201845 0.0201945 0.0202047 0.020215 0.0202255 0.0202361 0.0202468 0.0202577 0.0202687 0.0202797 0.0202909 0.0203021 0.0203133 0.0203246 0.020336 0.0203473 0.0203587 0.02037 0.0203813 0.0203927 0.0204039 0.0204152 0.0204263 0.0204374 0.0204485 0.0204595 0.0204704 0.0204811 0.0204917 0.0205022 0.0205125 0.0205226 0.0205325 0.0205422 0.0205516 0.0205609 0.0205698 0.0205786 0.020587 0.0205952 0.0206031 0.0206107 0.0206179 0.0206249 0.0206315 0.0206377 0.0206436 0.0206491 0.0206543 0.020659 0.0206634 0.0206673 0.0206708 0.0206739 0.0206766 0.0206788 0.0206805 0.0206818 0.0206827 0.0206831 0.020683 0.0206824 0.0206813 0.0206798 0.0206778 0.0206753 0.0206723 0.0206689 0.020665 0.0206606 0.0206558 0.0206505 0.0206448 0.0206387 0.0206321 0.0206252 0.020618 0.0206103 0.0206024 0.0205941 0.0205856 0.0205769 0.0205679 0.0205588 0.0205495 0.0205402 0.0205307 0.0205212 0.0205117 0.0205023 0.0204929 0.0204837 0.0204746 0.0204657 0.0204571 0.0204487 0.0204406 0.0204328 0.0204253 0.0204183 0.0204117 0.0204055 0.0203998 0.0203946 0.02039 0.020386 0.0203825 0.0203797 0.0203776 0.0203762 0.0203755 0.0203755 0.0203763 0.0203778 0.02038 0.0203828 0.0203862 0.0203901 0.0203944 0.0203988 0.0204032 0.0204073 0.0204109 0.0204136 0.020415 0.0204147 0.0204124 0.0204075 0.0203995 0.0203879 0.0203721 0.0203517 0.0203258 0.0202938 0.0202547 0.0202076 0.0201511 0.0200835 0.0200027 0.019906 0.0197906 0.019653 0.01949 0.0192984 0.019076 0.0188217 0.018536 0.018222 0.0178871 0.0175424 0.0172099 0.0169172 0.0166888 0.0165864 0.0165908 0.0167127 0.0170414 0.0173733 0.0198697 0 0 0 0 0.00631829 0.0048791 0.00245732 0.000784569 -0.00075316 -0.00264923 -0.00492938 -0.00705996 -0.0093398 -0.0123311 -0.0139016 0 0 0 0 0 0 0 0 0 0 0 0 0 0 0 0 0 0 0 0 0 0 0 0 0 0 0 0 0 0 0 0 0 0 0 0 0 0 0 0 0 0 0 0 0 0 0 0 0 0 0 0 0 0 0 0 0 0 0 0 0 0 0 0 0 0 0 0 0 0 0 0 0 0 0 0 0 0 0 0 0 0 0 0 0 0 0 0 0 0 0 0 0 0 0 0 0 0 0 0 0 0 0 0 0 0 0 0 0 0 0 0 0 0 0 0 0 0 0 0 0 0 0 0 0 0 0 0 0 0 0 0 8.67362e-19 
0.02 0.02 0.02 0.02 0.02 0.02 0.02 0.02 0.02 0.02 0.02 0.02 0.02 0.02 0.02 0.02 0.02 0.02 0.02 0.02 0.02 0.02 0.02 0.02 0.02 0.02 0.02 0.02 0.02 0.02 0.02 0.02 0.02 0.02 0.02 0.02 0.02 0.02 0.02 0.02 0.02 0.02 0.02 0.02 0.02 0.02 0.02 0.02 0.02 0.02 0.02 0.02 0.02 0.02 0.02 0.02 0.02 0.02 0.02 0.02 0.02 0.02 0.02 0.02 0.02 0.02 0.02 0.02 0.02 0.02 0.02 0.02 0.02 0.02 0.02 0.02 0.02 0.02 0.02 0.02 0.02 0.02 0.02 0.02 0.02 0.02 0.02 0.02 0.02 0.02 0.02 0.02 0.02 0.02 0.02 0.02 0.02 0.02 0.02 0.02 0.02 0.02 0.02 0.02 0.02 0.02 0.02 0.02 0.02 0.02 0.02 0.02 0.02 0.02 0.02 0.02 0.02 0.02 0.02 0.02 0.02 0.02 0.02 0.02 0.02 0.02 0.02 0.02 0.02 0.02 0.02 0.02 0.02 0.02 0.02 0.02 0.02 0.02 0.02 0.02 0.02 0.02 0.02 0.02 0.02 0.02 0.02 0.02 0.02 0.02 0.02 0.02 0.02 0.02 0.02 0.02 0.02 0.02 0.02 0.02 0.02 0.02 0.02 0.02 0.02 0.02 0.02 0.02 0.02 0.02 0.02 0.02 0.02 0.02 0.02 0.02 0.02 0.02 0.02 0.02 0.0199999 0.0199999 0.0199999 0.0199999 0.0199999 0.0199998 0.0199998 0.0199998 0.0199998 0.0199997 0.0199997 0.0199996 0.0199996 0.0199995 0.0199995 0.0199994 0.0199993 0.0199993 0.0199992 0.0199991 0.019999 0.0199989 0.0199987 0.0199986 0.0199985 0.0199983 0.0199981 0.0199979 0.0199977 0.0199975 0.0199973 0.019997 0.0199968 0.0199965 0.0199962 0.0199959 0.0199955 0.0199951 0.0199948 0.0199944 0.0199939 0.0199935 0.019993 0.0199925 0.019992 0.0199914 0.0199908 0.0199902 0.0199896 0.0199889 0.0199883 0.0199876 0.0199869 0.0199861 0.0199854 0.0199846 0.0199838 0.019983 0.0199821 0.0199813 0.0199804 0.0199796 0.0199787 0.0199778 0.019977 0.0199761 0.0199753 0.0199744 0.0199736 0.0199727 0.0199719 0.0199712 0.0199704 0.0199697 0.019969 0.0199684 0.0199678 0.0199673 0.0199668 0.0199664 0.019966 0.0199658 0.0199656 0.0199654 0.0199654 0.0199655 0.0199656 0.0199659 0.0199663 0.0199667 0.0199673 0.019968 0.0199688 0.0199697 0.0199708 0.0199721 0.0199735 0.0199751 0.0199769 0.0199788 0.0199809 0.0199832 0.0199857 0.0199884 0.0199913 0.0199944 0.0199977 0.0200012 0.0200049 0.0200089 0.0200131 0.0200175 0.0200221 0.020027 0.0200321 0.0200375 0.0200431 0.0200489 0.020055 0.0200614 0.020068 0.0200748 0.0200819 0.0200892 0.0200967 0.0201045 0.0201125 0.0201208 0.0201293 0.020138 0.0201469 0.020156 0.0201653 0.0201748 0.0201845 0.0201943 0.0202044 0.0202145 0.0202248 0.0202353 0.0202459 0.0202566 0.0202673 0.0202782 0.0202892 0.0203002 0.0203113 0.0203224 0.0203336 0.0203447 0.0203559 0.0203672 0.0203784 0.0203896 0.0204007 0.0204119 0.020423 0.020434 0.0204449 0.0204557 0.0204665 0.020477 0.0204875 0.0204978 0.0205079 0.0205178 0.0205275 0.020537 0.0205464 0.0205554 0.0205642 0.0205728 0.0205811 0.0205891 0.0205969 0.0206043 0.0206114 0.0206182 0.0206246 0.0206307 0.0206364 0.0206418 0.0206468 0.0206514 0.0206556 0.0206594 0.0206627 0.0206657 0.0206682 0.0206703 0.0206719 0.020673 0.0206737 0.0206739 0.0206737 0.020673 0.0206718 0.0206701 0.0206679 0.0206653 0.0206622 0.0206586 0.0206546 0.0206501 0.0206451 0.0206397 0.0206339 0.0206277 0.0206211 0.0206141 0.0206067 0.020599 0.0205909 0.0205826 0.020574 0.0205652 0.0205562 0.020547 0.0205376 0.0205282 0.0205186 0.0205091 0.0204996 0.0204901 0.0204806 0.0204713 0.0204622 0.0204532 0.0204445 0.020436 0.0204277 0.0204199 0.0204123 0.0204051 0.0203984 0.0203921 0.0203862 0.0203809 0.020376 0.0203718 0.0203681 0.0203651 0.0203628 0.0203611 0.0203601 0.0203599 0.0203604 0.0203617 0.0203636 0.0203663 0.0203695 0.0203732 0.0203773 0.0203816 0.020386 0.0203901 0.0203938 0.0203966 0.0203983 0.0203984 0.0203965 0.0203922 0.0203849 0.0203741 0.0203593 0.0203399 0.0203151 0.0202843 0.0202465 0.0202008 0.0201456 0.0200793 0.0199999 0.0199046 0.0197904 0.0196542 0.0194925 0.0193026 0.0190823 0.0188313 0.0185515 0.0182475 0.017929 0.0176108 0.0173121 0.0170586 0.0168657 0.0167547 0.0167598 0.0168108 0.0167365 0.0168383 0.0174407 0.0167991 0.014435 0.0125481 0.0096 0.00714209 0.00531788 0.00307973 0.00107248 -0.000761965 -0.00265664 -0.00502878 -0.00707886 -0.0092175 -0.0115465 -0.0138976 -0.0163387 -0.0203053 0 0 0 0 0 0 0 0 0 0 0 0 0 0 0 0 0 0 0 0 0 0 0 0 0 0 0 0 0 0 0 0 0 0 0 0 0 0 0 0 0 0 0 0 0 0 0 0 0 0 0 0 0 0 0 0 0 0 0 0 0 0 0 0 0 0 0 0 0 0 0 0 0 0 0 0 0 0 0 0 0 0 0 0 0 0 0 0 0 0 0 0 0 0 0 0 0 0 0 0 0 0 0 0 0 0 0 0 0 0 0 0 0 0 0 0 0 0 0 0 0 0 0 0 0 0 0 0 0 0 1.30104e-18 
0.02 0.02 0.02 0.02 0.02 0.02 0.02 0.02 0.02 0.02 0.02 0.02 0.02 0.02 0.02 0.02 0.02 0.02 0.02 0.02 0.02 0.02 0.02 0.02 0.02 0.02 0.02 0.02 0.02 0.02 0.02 0.02 0.02 0.02 0.02 0.02 0.02 0.02 0.02 0.02 0.02 0.02 0.02 0.02 0.02 0.02 0.02 0.02 0.02 0.02 0.02 0.02 0.02 0.02 0.02 0.02 0.02 0.02 0.02 0.02 0.02 0.02 0.02 0.02 0.02 0.02 0.02 0.02 0.02 0.02 0.02 0.02 0.02 0.02 0.02 0.02 0.02 0.02 0.02 0.02 0.02 0.02 0.02 0.02 0.02 0.02 0.02 0.02 0.02 0.02 0.02 0.02 0.02 0.02 0.02 0.02 0.02 0.02 0.02 0.02 0.02 0.02 0.02 0.02 0.02 0.02 0.02 0.02 0.02 0.02 0.02 0.02 0.02 0.02 0.02 0.02 0.02 0.02 0.02 0.02 0.02 0.02 0.02 0.02 0.02 0.02 0.02 0.02 0.02 0.02 0.02 0.02 0.02 0.02 0.02 0.02 0.02 0.02 0.02 0.02 0.02 0.02 0.02 0.02 0.02 0.02 0.02 0.02 0.02 0.02 0.02 0.02 0.02 0.02 0.02 0.02 0.02 0.02 0.02 0.02 0.02 0.02 0.02 0.02 0.02 0.02 0.02 0.02 0.02 0.02 0.02 0.02 0.02 0.02 0.02 0.02 0.02 0.02 0.02 0.0199999 0.0199999 0.0199999 0.0199999 0.0199999 0.0199999 0.0199998 0.0199998 0.0199998 0.0199998 0.0199997 0.0199997 0.0199996 0.0199996 0.0199995 0.0199995 0.0199994 0.0199993 0.0199993 0.0199992 0.0199991 0.019999 0.0199989 0.0199987 0.0199986 0.0199984 0.0199983 0.0199981 0.0199979 0.0199977 0.0199975 0.0199973 0.019997 0.0199968 0.0199965 0.0199962 0.0199959 0.0199955 0.0199952 0.0199948 0.0199944 0.0199939 0.0199935 0.019993 0.0199925 0.019992 0.0199914 0.0199909 0.0199903 0.0199896 0.019989 0.0199883 0.0199876 0.0199869 0.0199862 0.0199854 0.0199846 0.0199839 0.019983 0.0199822 0.0199814 0.0199805 0.0199797 0.0199788 0.019978 0.0199771 0.0199762 0.0199754 0.0199746 0.0199737 0.0199729 0.0199721 0.0199714 0.0199706 0.0199699 0.0199693 0.0199686 0.0199681 0.0199675 0.0199671 0.0199667 0.0199663 0.0199661 0.0199659 0.0199658 0.0199658 0.0199658 0.019966 0.0199663 0.0199667 0.0199672 0.0199678 0.0199685 0.0199693 0.0199703 0.0199714 0.0199727 0.0199742 0.0199758 0.0199775 0.0199795 0.0199816 0.019984 0.0199865 0.0199892 0.0199921 0.0199952 0.0199985 0.0200021 0.0200058 0.0200098 0.020014 0.0200184 0.0200231 0.020028 0.0200331 0.0200385 0.0200441 0.0200499 0.020056 0.0200623 0.0200689 0.0200757 0.0200827 0.02009 0.0200975 0.0201052 0.0201132 0.0201214 0.0201297 0.0201383 0.0201471 0.0201561 0.0201653 0.0201747 0.0201842 0.0201939 0.0202038 0.0202138 0.020224 0.0202342 0.0202446 0.0202551 0.0202657 0.0202764 0.0202872 0.020298 0.0203089 0.0203199 0.0203309 0.0203419 0.020353 0.020364 0.020375 0.0203861 0.0203971 0.020408 0.0204189 0.0204297 0.0204404 0.0204511 0.0204616 0.0204719 0.0204821 0.0204922 0.0205021 0.0205118 0.0205213 0.0205306 0.0205397 0.0205486 0.0205572 0.0205656 0.0205737 0.0205815 0.020589 0.0205962 0.0206031 0.0206097 0.020616 0.0206219 0.0206274 0.0206326 0.0206374 0.0206418 0.0206458 0.0206494 0.0206526 0.0206554 0.0206577 0.0206596 0.020661 0.020662 0.0206625 0.0206625 0.0206621 0.0206612 0.0206598 0.020658 0.0206557 0.0206529 0.0206496 0.0206459 0.0206417 0.0206371 0.020632 0.0206265 0.0206205 0.0206142 0.0206074 0.0206003 0.0205928 0.020585 0.0205769 0.0205685 0.0205598 0.0205509 0.0205418 0.0205325 0.0205231 0.0205135 0.020504 0.0204943 0.0204847 0.0204752 0.0204657 0.0204563 0.020447 0.020438 0.0204291 0.0204205 0.0204122 0.0204041 0.0203965 0.0203891 0.0203822 0.0203757 0.0203696 0.020364 0.020359 0.0203544 0.0203505 0.0203472 0.0203445 0.0203425 0.0203412 0.0203406 0.0203408 0.0203417 0.0203433 0.0203456 0.0203484 0.0203519 0.0203557 0.0203598 0.020364 0.0203681 0.0203717 0.0203747 0.0203765 0.0203769 0.0203755 0.0203717 0.0203651 0.0203552 0.0203413 0.0203229 0.0202994 0.0202699 0.0202335 0.0201892 0.0201356 0.0200709 0.0199931 0.0198994 0.019787 0.0196526 0.0194931 0.0193058 0.0190894 0.0188446 0.0185746 0.0182863 0.0179902 0.0177013 0.0174337 0.0172024 0.0170211 0.0168829 0.0167917 0.0167309 0.0165901 0.0163224 0.0160331 0.0152425 0.0137347 0.012096 0.0100239 0.00766392 0.00538923 0.00332439 0.00130097 -0.000777285 -0.00285465 -0.00509642 -0.00723444 -0.00940041 -0.0115989 -0.0137685 -0.0159457 -0.0184931 -0.021019 -0.0233709 -0.0292898 0 0 0 0 0 0 0 0 0 0 0 0 0 0 0 0 0 0 0 0 0 0 0 0 0 0 0 0 0 0 0 0 0 0 0 0 0 0 0 0 0 0 0 0 0 0 0 0 0 0 0 0 0 0 0 0 0 0 0 0 0 0 0 0 0 0 0 0 0 0 0 0 0 0 0 0 0 0 0 0 0 0 0 0 0 0 0 0 0 0 0 0 0 0 0 0 0 0 0 0 0 0 0 0 0 0 0 0 0 0 0 0 0 0 0 0 0 0 0 0 0 0 0 0 0 0 -0.00339964 2.1684e-19 