# vtk DataFile Version 2.0
iteration 1323
ASCII

DATASET STRUCTURED_POINTS
DIMENSIONS 621 64 1
ORIGIN 0 0 0
SPACING 0.00161031 0.00161031 0.00161031

POINT_DATA 39744
SCALARS P float 1
LOOKUP_TABLE default
0 0 0 0 0 0 0 0 0 0 0 0 0 0 0 0 0 0 0 0 0 0 0 0 0 0 0 0 0 0 0 0 0 0 0 0 0 0 0 0 0 0 0 0 0 0 0 0 0 0 0 0 0 0 0 0 0 0 0 0 0 0 0 0 0 0 0 0 0 0 0 0 0 0 0 0 0 0 0 0 0 0 0 0 0 0 0 0 0 0 0 0 0 0 0 0 0 0 0 0 0 0 0 0 0 0 0 0 0 0 0 0 0 0 0 0 0 0 0 0 0 0 0 0 0 0 0 0 0 0 0 0 0 0 0 0 0 0 0 0 0 0 0 0 0 0 0 0 0 0 0 0 0 0 0 0 0 0 0 0 0 0 0 0 0 0 0 0 0 0 0 0 0 0 0 0 0 0 0 0 0 0 0 0 0 0 0 0 0 0 0 0 0 0 0 0 0 0 0 0 0 0 0 0 0 0 0 0 0 0 0 0 0 0 0 0 0 0 0 0 0 0 0 0 0 0 0 0 0 0 0 0 0 0 0 0 0 0 0 0 0 0 0 0 0 0 0 0 0 0 0 0 0 0 0 0 0 0 0 0 0 0 0 0 0 0 0 0 0 0 0 0 0 0 0 0 0 0 0 0 0 0 0 0 0 0 0 0 0 0 0 0 0 0 0 0 0 0 0 0 0 0 0 0 0 0 0 0 0 0 0 0 0 0 0 0 0 0 0 0 0 0 0 0 0 0 0 0 0 0 0 0 0 0 0 0 0 0 0 0 0 0 0 0 0 0 0 0 0 0 0 0 0 0 0 0 0 0 0 0 0 0 0 0 0 0 0 0 0 0 0 0 0 0 0 0 0 0 0 0 0 0 0 0 0 0 0 0 0 0 0 0 0 0 0 0 0 0 0 0 0 0 0 0 0 0 0 0 0 0 0 0 0 0 0 0 0 0 0 0 0 0 0 0 0 0 0 0 0 0 0 0 0 0 0 0 0 0 0 0 0 0 0 0 0 0 0 0 0 0 0 0 0 0 0 0 0 0 0 0 0 0 0 0 0 0 0 0 0 0 0 0 0 0 0 0 0 0 0 0 0 0 0 0 0 0 0 0 0 0 0 0 0 0 0 0 0 0 0 0 0 0 0 0 0 0 0 0 0 0 0 0 0 0 0 0 0 0 0 0 0 0 0 0 0 0 0 0 0 0 0 0 0 0 0 0 0 0 0 0 0 0 0 0 0 0 0 0 0 0 0 0 0 0 0 0 0 0 0 0 0 0 0 0 0 0 0 0 0 0 0 0 0 0 0 0 0 0 0 0 0 0 0 0 0 0 0 0 0 0 0 0 0 0 0 0 0 0 0 0 0 0 0 0 0 0 0 0 0 0 0 0 0 0 0 0 0 0 0 0 0 
0.02 0.02 0.02 0.02 0.02 0.02 0.02 0.02 0.02 0.02 0.02 0.02 0.02 0.02 0.02 0.02 0.02 0.02 0.02 0.02 0.02 0.02 0.02 0.02 0.02 0.02 0.02 0.02 0.02 0.02 0.02 0.02 0.02 0.02 0.02 0.02 0.02 0.02 0.02 0.02 0.02 0.02 0.02 0.02 0.02 0.02 0.02 0.02 0.02 0.02 0.02 0.02 0.02 0.02 0.02 0.02 0.02 0.02 0.02 0.02 0.02 0.02 0.02 0.02 0.02 0.02 0.02 0.02 0.02 0.02 0.02 0.02 0.02 0.02 0.02 0.02 0.02 0.02 0.0200001 0.0200001 0.0200001 0.0200001 0.0200001 0.0200001 0.0200001 0.0200001 0.0200001 0.0200001 0.0200001 0.0200002 0.0200002 0.0200002 0.0200002 0.0200002 0.0200002 0.0200003 0.0200003 0.0200003 0.0200003 0.0200003 0.0200004 0.0200004 0.0200004 0.0200005 0.0200005 0.0200005 0.0200006 0.0200006 0.0200006 0.0200007 0.0200007 0.0200007 0.0200008 0.0200008 0.0200008 0.0200008 0.0200009 0.0200009 0.0200009 0.0200009 0.0200009 0.0200009 0.0200008 0.0200008 0.0200007 0.0200006 0.0200005 0.0200004 0.0200002 0.0200001 0.0199998 0.0199996 0.0199993 0.0199989 0.0199985 0.0199981 0.0199976 0.019997 0.0199964 0.0199956 0.0199948 0.0199939 0.019993 0.0199919 0.0199907 0.0199894 0.019988 0.0199865 0.0199849 0.0199832 0.0199813 0.0199793 0.0199772 0.019975 0.0199726 0.0199702 0.0199676 0.0199649 0.0199622 0.0199593 0.0199564 0.0199534 0.0199503 0.0199472 0.0199441 0.019941 0.0199379 0.0199348 0.0199318 0.0199288 0.019926 0.0199233 0.0199207 0.0199183 0.0199161 0.0199141 0.0199124 0.0199109 0.0199096 0.0199087 0.0199081 0.0199078 0.0199078 0.0199082 0.0199089 0.0199101 0.0199115 0.019913 0.0199139 0.0199155 0.0199178 0.0199207 0.0199242 0.0199281 0.0199325 0.0199374 0.0199427 0.0199485 0.0199547 0.0199615 0.0199687 0.0199765 0.0199847 0.0199936 0.020003 0.0200131 0.0200238 0.0200352 0.0200473 0.0200601 0.0200738 0.0200883 0.0201037 0.02012 0.0201373 0.0201556 0.020175 0.0201955 0.0202172 0.02024 0.020264 0.0202893 0.0203158 0.0203436 0.0203726 0.0204028 0.0204343 0.0204668 0.0205004 0.020535 0.0205705 0.0206067 0.0206436 0.020681 0.0207186 0.0207562 0.0207937 0.0208308 0.0208671 0.0209025 0.0209361 0.0209686 0.0210015 0.0210336 0.0210673 0.0210999 0.021131 0.0211607 0.0211887 0.0212149 0.0212392 0.0212614 0.0212814 0.0212991 0.0213144 0.0213272 0.0213374 0.0213449 0.0213497 0.0213516 0.0213505 0.0213465 0.0213395 0.0213295 0.0213163 0.0213 0.0212806 0.021258 0.0212322 0.0212032 0.021171 0.0211356 0.0210969 0.0210549 0.0210096 0.020961 0.0209089 0.0208533 0.0207942 0.0207313 0.0206644 0.0205934 0.0205179 0.0204376 0.0203519 0.0202604 0.0201625 0.0200575 0.0199447 0.0198233 0.0196923 0.0195509 0.0193981 0.0192328 0.019054 0.0188607 0.0186516 0.0184258 0.0181819 0.017919 0.0176356 0.0173313 0.0170071 0.0166562 0.0162978 0.0159744 0.0156383 0.0161051 0.0183752 0 0 0 0 0 0 0 0 0 0 0 0 0 0 0 0 0 0 0 0 0 0 0 0 0 0 0 0 0 0 0 0 0 0 0 0 0 0 0 0 0 0 0 0 0 0 0 0 0 0 0 0 0 0 0 0 0 0 0 0 0 0 0 0 0 0 0 0 0 0 0 0 0 0 0 0 0 0 0 0 0 0 0 0 0 0 0 0 0 0 0 0 0 0 0 0 0 0 0 0 0 0 0 0 0 0 0 0 0 0 0 0 0 0 0 0 0 0 0 0 0 0 0 0 0 0 0 0 0 0 0 0 0 0 0 0 0 0 0 0 0 0 0 0 0 0 0 0 0 0 0 0 0 0 0 0 0 0 0 0 0 0 0 0 0 0 0 0 0 0 0 0 0 0 0 0 0 0 0 0 0 0 0 0 0 0 0 0 0 0 0 0 0 0 0 0 0 0 0 0 0 0 0 0 0 0 0 0 0 0 0 0 0 0 0 0 0 0 0 0 0 0 0 0 0 0 0 0 0 0 0 0 0 0 0 0 0 0 0 0 0 0 0 0 0 0 0 0 0 0 0 0 0 0 0 0 0 0 0 0 0 0 0 0 0 0 0 0 0 0 0 0 0 0 0 0 0 0 0 0 0 0 0 0 0 0 0 0 0 0 0 0 0 0 0 0 0 0 0 0 0 0 0 0 0 0 0 0 0 0 0 0 
0.02 0.02 0.02 0.02 0.02 0.02 0.02 0.02 0.02 0.02 0.02 0.02 0.02 0.02 0.02 0.02 0.02 0.02 0.02 0.02 0.02 0.02 0.02 0.02 0.02 0.02 0.02 0.02 0.02 0.02 0.02 0.02 0.02 0.02 0.02 0.02 0.02 0.02 0.02 0.02 0.02 0.02 0.02 0.02 0.02 0.02 0.02 0.02 0.02 0.02 0.02 0.02 0.02 0.02 0.02 0.02 0.02 0.02 0.02 0.02 0.02 0.02 0.02 0.02 0.02 0.02 0.02 0.02 0.02 0.02 0.02 0.02 0.02 0.02 0.02 0.02 0.02 0.02 0.0200001 0.0200001 0.0200001 0.0200001 0.0200001 0.0200001 0.0200001 0.0200001 0.0200001 0.0200001 0.0200001 0.0200002 0.0200002 0.0200002 0.0200002 0.0200002 0.0200002 0.0200002 0.0200003 0.0200003 0.0200003 0.0200003 0.0200004 0.0200004 0.0200004 0.0200004 0.0200005 0.0200005 0.0200005 0.0200006 0.0200006 0.0200006 0.0200007 0.0200007 0.0200007 0.0200008 0.0200008 0.0200008 0.0200008 0.0200008 0.0200008 0.0200008 0.0200008 0.0200008 0.0200008 0.0200007 0.0200007 0.0200006 0.0200005 0.0200003 0.0200002 0.02 0.0199998 0.0199995 0.0199992 0.0199989 0.0199985 0.019998 0.0199975 0.0199969 0.0199963 0.0199956 0.0199947 0.0199939 0.0199929 0.0199918 0.0199906 0.0199893 0.0199879 0.0199864 0.0199848 0.0199831 0.0199812 0.0199792 0.0199771 0.0199749 0.0199726 0.0199701 0.0199675 0.0199649 0.0199621 0.0199592 0.0199563 0.0199533 0.0199502 0.0199471 0.019944 0.0199409 0.0199378 0.0199347 0.0199317 0.0199288 0.0199259 0.0199232 0.0199206 0.0199182 0.019916 0.0199141 0.0199123 0.0199108 0.0199096 0.0199087 0.019908 0.0199077 0.0199078 0.0199082 0.019909 0.0199101 0.0199115 0.0199131 0.0199147 0.0199165 0.0199189 0.0199218 0.0199254 0.0199294 0.0199338 0.0199388 0.0199441 0.01995 0.0199564 0.0199632 0.0199705 0.0199784 0.0199868 0.0199957 0.0200053 0.0200154 0.0200262 0.0200376 0.0200498 0.0200627 0.0200764 0.0200909 0.0201063 0.0201226 0.0201399 0.0201582 0.0201775 0.0201979 0.0202195 0.0202422 0.0202661 0.0202911 0.0203174 0.0203449 0.0203736 0.0204035 0.0204345 0.0204666 0.0204997 0.0205337 0.0205685 0.020604 0.02064 0.0206765 0.0207131 0.0207497 0.0207861 0.0208221 0.0208574 0.0208925 0.0209271 0.0209602 0.0209945 0.021029 0.0210625 0.0210949 0.0211259 0.0211555 0.0211834 0.0212095 0.0212337 0.0212558 0.0212758 0.0212935 0.0213087 0.0213215 0.0213317 0.0213392 0.0213439 0.0213458 0.0213448 0.0213408 0.0213338 0.0213238 0.0213107 0.0212945 0.0212751 0.0212526 0.0212269 0.021198 0.0211659 0.0211306 0.021092 0.0210501 0.021005 0.0209565 0.0209046 0.0208492 0.0207901 0.0207274 0.0206606 0.0205897 0.0205143 0.0204341 0.0203485 0.0202571 0.0201594 0.0200545 0.0199419 0.0198206 0.0196899 0.0195487 0.0193961 0.0192311 0.0190527 0.0188596 0.0186509 0.0184254 0.018182 0.0179195 0.0176368 0.0173343 0.0170137 0.0166745 0.0163404 0.016061 0.0156737 0.0156423 0.0161546 0.0154895 0.014688 0.0139833 0.0133521 0.0127054 0.012031 0.0112862 0.0104253 0.00945054 0.00852209 0.00775846 0.00702004 0.00730661 0 0 0 0 0 0 0 0 0 0 0 0 0 0 0 0 0 0 0 0 0 0 0 0 0 0 0 0 0 0 0 0 0 0 0 0 0 0 0 0 0 0 0 0 0 0 0 0 0 0 0 0 0 0 0 0 0 0 0 0 0 0 0 0 0 0 0 0 0 0 0 0 0 0 0 0 0 0 0 0 0 0 0 0 0 0 0 0 0 0 0 0 0 0 0 0 0 0 0 0 0 0 0 0 0 0 0 0 0 0 0 0 0 0 0 0 0 0 0 0 0 0 0 0 0 0 0 0 0 0 0 0 0 0 0 0 0 0 0 0 0 0 0 0 0 0 0 0 0 0 0 0 0 0 0 0 0 0 0 0 0 0 0 0 0 0 0 0 0 0 0 0 0 0 0 0 0 0 0 0 0 0 0 0 0 0 0 0 0 0 0 0 0 0 0 0 0 0 0 0 0 0 0 0 0 0 0 0 0 0 0 0 0 0 0 0 0 0 0 0 0 0 0 0 0 0 0 0 0 0 0 0 0 0 0 0 0 0 0 0 0 0 0 0 0 0 0 0 0 0 0 0 0 0 0 0 0 0 0 0 0 0 0 0 0 0 0 0 0 0 0 0 0 0 0 0 0 0 0 0 0 0 0 0 0 0 0 0 0 0 0 0 0 0 0 0 0 0 0 
0.02 0.02 0.02 0.02 0.02 0.02 0.02 0.02 0.02 0.02 0.02 0.02 0.02 0.02 0.02 0.02 0.02 0.02 0.02 0.02 0.02 0.02 0.02 0.02 0.02 0.02 0.02 0.02 0.02 0.02 0.02 0.02 0.02 0.02 0.02 0.02 0.02 0.02 0.02 0.02 0.02 0.02 0.02 0.02 0.02 0.02 0.02 0.02 0.02 0.02 0.02 0.02 0.02 0.02 0.02 0.02 0.02 0.02 0.02 0.02 0.02 0.02 0.02 0.02 0.02 0.02 0.02 0.02 0.02 0.02 0.02 0.02 0.02 0.02 0.02 0.02 0.02 0.02 0.0200001 0.0200001 0.0200001 0.0200001 0.0200001 0.0200001 0.0200001 0.0200001 0.0200001 0.0200001 0.0200001 0.0200001 0.0200002 0.0200002 0.0200002 0.0200002 0.0200002 0.0200002 0.0200003 0.0200003 0.0200003 0.0200003 0.0200004 0.0200004 0.0200004 0.0200004 0.0200005 0.0200005 0.0200005 0.0200006 0.0200006 0.0200006 0.0200006 0.0200007 0.0200007 0.0200007 0.0200008 0.0200008 0.0200008 0.0200008 0.0200008 0.0200008 0.0200008 0.0200008 0.0200007 0.0200007 0.0200006 0.0200005 0.0200004 0.0200003 0.0200001 0.0199999 0.0199997 0.0199994 0.0199991 0.0199988 0.0199984 0.0199979 0.0199974 0.0199968 0.0199961 0.0199954 0.0199946 0.0199937 0.0199927 0.0199916 0.0199904 0.0199891 0.0199877 0.0199862 0.0199846 0.0199828 0.019981 0.019979 0.0199769 0.0199746 0.0199723 0.0199698 0.0199673 0.0199646 0.0199618 0.0199589 0.019956 0.019953 0.0199499 0.0199468 0.0199437 0.0199406 0.0199375 0.0199344 0.0199314 0.0199285 0.0199256 0.0199229 0.0199204 0.019918 0.0199158 0.0199138 0.0199121 0.0199106 0.0199094 0.0199085 0.0199079 0.0199077 0.0199078 0.0199082 0.019909 0.0199102 0.0199117 0.0199135 0.0199154 0.0199175 0.01992 0.0199231 0.0199267 0.0199307 0.0199353 0.0199404 0.0199459 0.0199519 0.0199584 0.0199654 0.0199729 0.0199809 0.0199895 0.0199986 0.0200083 0.0200187 0.0200296 0.0200412 0.0200536 0.0200666 0.0200805 0.0200951 0.0201107 0.0201271 0.0201444 0.0201628 0.0201822 0.0202026 0.0202241 0.0202467 0.0202705 0.0202954 0.0203215 0.0203488 0.0203772 0.0204066 0.0204372 0.0204687 0.0205012 0.0205345 0.0205685 0.0206031 0.0206381 0.0206734 0.020709 0.0207446 0.02078 0.0208154 0.0208507 0.0208855 0.0209204 0.0209556 0.0209906 0.0210248 0.021058 0.0210901 0.0211208 0.0211501 0.0211777 0.0212036 0.0212275 0.0212494 0.0212691 0.0212865 0.0213015 0.021314 0.0213239 0.0213311 0.0213356 0.0213372 0.0213359 0.0213316 0.0213244 0.0213141 0.0213007 0.0212842 0.0212646 0.0212419 0.021216 0.0211869 0.0211547 0.0211193 0.0210806 0.0210387 0.0209936 0.0209451 0.0208932 0.0208378 0.0207789 0.0207162 0.0206495 0.0205787 0.0205033 0.0204231 0.0203376 0.0202463 0.0201486 0.0200438 0.0199312 0.01981 0.0196794 0.0195383 0.0193859 0.0192211 0.0190429 0.0188501 0.0186417 0.0184165 0.0181735 0.017912 0.0176313 0.0173325 0.0170231 0.0167082 0.0164044 0.0161958 0.0159534 0.0156335 0.0156773 0.0151637 0.0146013 0.0139435 0.0133222 0.0126603 0.0119652 0.0112011 0.0103625 0.00946307 0.00857296 0.00778029 0.00680352 0.00618552 0.00511347 0.00380103 0.00252698 0.00114541 -0.000206743 -0.00154836 0 0 0 0 0 0 0 0 0 0 0 0 0 0 0 0 0 0 0 0 0 0 0 0 0 0 0 0 0 0 0 0 0 0 0 0 0 0 0 0 0 0 0 0 0 0 0 0 0 0 0 0 0 0 0 0 0 0 0 0 0 0 0 0 0 0 0 0 0 0 0 0 0 0 0 0 0 0 0 0 0 0 0 0 0 0 0 0 0 0 0 0 0 0 0 0 0 0 0 0 0 0 0 0 0 0 0 0 0 0 0 0 0 0 0 0 0 0 0 0 0 0 0 0 0 0 0 0 0 0 0 0 0 0 0 0 0 0 0 0 0 0 0 0 0 0 0 0 0 0 0 0 0 0 0 0 0 0 0 0 0 0 0 0 0 0 0 0 0 0 0 0 0 0 0 0 0 0 0 0 0 0 0 0 0 0 0 0 0 0 0 0 0 0 0 0 0 0 0 0 0 0 0 0 0 0 0 0 0 0 0 0 0 0 0 0 0 0 0 0 0 0 0 0 0 0 0 0 0 0 0 0 0 0 0 0 0 0 0 0 0 0 0 0 0 0 0 0 0 0 0 0 0 0 0 0 0 0 0 0 0 0 0 0 0 0 0 0 0 0 0 0 0 0 0 0 0 0 0 0 0 0 0 0 0 0 0 0 0 0 0 0 0 
0.02 0.02 0.02 0.02 0.02 0.02 0.02 0.02 0.02 0.02 0.02 0.02 0.02 0.02 0.02 0.02 0.02 0.02 0.02 0.02 0.02 0.02 0.02 0.02 0.02 0.02 0.02 0.02 0.02 0.02 0.02 0.02 0.02 0.02 0.02 0.02 0.02 0.02 0.02 0.02 0.02 0.02 0.02 0.02 0.02 0.02 0.02 0.02 0.02 0.02 0.02 0.02 0.02 0.02 0.02 0.02 0.02 0.02 0.02 0.02 0.02 0.02 0.02 0.02 0.02 0.02 0.02 0.02 0.02 0.02 0.02 0.02 0.02 0.02 0.02 0.02 0.02 0.02 0.02 0.0200001 0.0200001 0.0200001 0.0200001 0.0200001 0.0200001 0.0200001 0.0200001 0.0200001 0.0200001 0.0200001 0.0200002 0.0200002 0.0200002 0.0200002 0.0200002 0.0200002 0.0200003 0.0200003 0.0200003 0.0200003 0.0200003 0.0200004 0.0200004 0.0200004 0.0200004 0.0200005 0.0200005 0.0200005 0.0200006 0.0200006 0.0200006 0.0200006 0.0200007 0.0200007 0.0200007 0.0200007 0.0200007 0.0200007 0.0200007 0.0200007 0.0200007 0.0200007 0.0200006 0.0200006 0.0200005 0.0200004 0.0200003 0.0200001 0.02 0.0199998 0.0199995 0.0199993 0.0199989 0.0199986 0.0199982 0.0199977 0.0199972 0.0199966 0.0199959 0.0199952 0.0199943 0.0199934 0.0199924 0.0199913 0.0199901 0.0199888 0.0199874 0.0199859 0.0199843 0.0199825 0.0199806 0.0199786 0.0199765 0.0199743 0.0199719 0.0199694 0.0199668 0.0199642 0.0199614 0.0199585 0.0199556 0.0199526 0.0199495 0.0199464 0.0199433 0.0199402 0.0199371 0.019934 0.019931 0.0199281 0.0199252 0.0199226 0.01992 0.0199177 0.0199155 0.0199136 0.0199119 0.0199104 0.0199093 0.0199084 0.0199079 0.0199077 0.0199079 0.0199084 0.0199093 0.0199106 0.0199122 0.0199142 0.0199163 0.0199187 0.0199215 0.0199248 0.0199285 0.0199327 0.0199375 0.0199427 0.0199484 0.0199546 0.0199613 0.0199686 0.0199763 0.0199845 0.0199934 0.0200027 0.0200127 0.0200232 0.0200344 0.0200463 0.0200588 0.0200721 0.0200861 0.0201009 0.0201166 0.0201331 0.0201506 0.020169 0.0201884 0.0202088 0.0202303 0.0202528 0.0202764 0.0203011 0.0203268 0.0203537 0.0203816 0.0204105 0.0204404 0.0204712 0.0205028 0.0205351 0.0205681 0.0206017 0.0206356 0.02067 0.0207046 0.0207394 0.0207745 0.0208096 0.0208448 0.0208802 0.0209156 0.0209508 0.0209853 0.0210191 0.0210518 0.0210834 0.0211137 0.0211425 0.0211697 0.0211951 0.0212186 0.0212401 0.0212594 0.0212764 0.021291 0.0213031 0.0213125 0.0213193 0.0213233 0.0213244 0.0213226 0.0213179 0.0213102 0.0212994 0.0212856 0.0212687 0.0212487 0.0212256 0.0211994 0.0211701 0.0211376 0.021102 0.0210632 0.0210212 0.0209759 0.0209274 0.0208755 0.0208202 0.0207613 0.0206987 0.0206321 0.0205614 0.0204862 0.0204061 0.0203207 0.0202295 0.0201319 0.0200273 0.0199148 0.0197938 0.0196634 0.0195226 0.0193704 0.0192059 0.0190281 0.0188357 0.0186278 0.0184033 0.0181614 0.0179019 0.0176257 0.0173358 0.0170442 0.016759 0.0164911 0.0162758 0.0160968 0.0159058 0.0155313 0.0150343 0.0145139 0.0139088 0.0132954 0.0126265 0.0119198 0.0111497 0.0103339 0.00947921 0.00862398 0.00782242 0.00701105 0.00602147 0.00492901 0.00373587 0.0024882 0.00115969 -0.000197076 -0.00158057 -0.00321285 -0.00489796 -0.00658876 -0.00861282 -0.0114202 0 0 0 0 0 0 0 0 0 0 0 0 0 0 0 0 0 0 0 0 0 0 0 0 0 0 0 0 0 0 0 0 0 0 0 0 0 0 0 0 0 0 0 0 0 0 0 0 0 0 0 0 0 0 0 0 0 0 0 0 0 0 0 0 0 0 0 0 0 0 0 0 0 0 0 0 0 0 0 0 0 0 0 0 0 0 0 0 0 0 0 0 0 0 0 0 0 0 0 0 0 0 0 0 0 0 0 0 0 0 0 0 0 0 0 0 0 0 0 0 0 0 0 0 0 0 0 0 0 0 0 0 0 0 0 0 0 0 0 0 0 0 0 0 0 0 0 0 0 0 0 0 0 0 0 0 0 0 0 0 0 0 0 0 0 0 0 0 0 0 0 0 0 0 0 0 0 0 0 0 0 0 0 0 0 0 0 0 0 0 0 0 0 0 0 0 0 0 0 0 0 0 0 0 0 0 0 0 0 0 0 0 0 0 0 0 0 0 0 0 0 0 0 0 0 0 0 0 0 0 0 0 0 0 0 0 0 0 0 0 0 0 0 0 0 0 0 0 0 0 0 0 0 0 0 0 0 0 0 0 0 0 0 0 0 0 0 0 0 0 0 0 0 0 0 0 0 0 0 0 0 0 0 0 0 0 0 -8.67362e-19 
0.02 0.02 0.02 0.02 0.02 0.02 0.02 0.02 0.02 0.02 0.02 0.02 0.02 0.02 0.02 0.02 0.02 0.02 0.02 0.02 0.02 0.02 0.02 0.02 0.02 0.02 0.02 0.02 0.02 0.02 0.02 0.02 0.02 0.02 0.02 0.02 0.02 0.02 0.02 0.02 0.02 0.02 0.02 0.02 0.02 0.02 0.02 0.02 0.02 0.02 0.02 0.02 0.02 0.02 0.02 0.02 0.02 0.02 0.02 0.02 0.02 0.02 0.02 0.02 0.02 0.02 0.02 0.02 0.02 0.02 0.02 0.02 0.02 0.02 0.02 0.02 0.02 0.02 0.02 0.0200001 0.0200001 0.0200001 0.0200001 0.0200001 0.0200001 0.0200001 0.0200001 0.0200001 0.0200001 0.0200001 0.0200001 0.0200002 0.0200002 0.0200002 0.0200002 0.0200002 0.0200002 0.0200003 0.0200003 0.0200003 0.0200003 0.0200003 0.0200004 0.0200004 0.0200004 0.0200004 0.0200005 0.0200005 0.0200005 0.0200005 0.0200006 0.0200006 0.0200006 0.0200006 0.0200006 0.0200006 0.0200007 0.0200007 0.0200006 0.0200006 0.0200006 0.0200006 0.0200005 0.0200004 0.0200004 0.0200003 0.0200001 0.02 0.0199998 0.0199996 0.0199993 0.0199991 0.0199987 0.0199984 0.0199979 0.0199974 0.0199969 0.0199963 0.0199956 0.0199948 0.019994 0.0199931 0.0199921 0.019991 0.0199898 0.0199884 0.019987 0.0199855 0.0199838 0.0199821 0.0199802 0.0199782 0.019976 0.0199738 0.0199714 0.0199689 0.0199663 0.0199636 0.0199609 0.019958 0.019955 0.019952 0.019949 0.0199459 0.0199428 0.0199397 0.0199366 0.0199335 0.0199305 0.0199276 0.0199248 0.0199222 0.0199197 0.0199174 0.0199152 0.0199133 0.0199117 0.0199103 0.0199092 0.0199085 0.019908 0.0199079 0.0199082 0.0199088 0.0199098 0.0199112 0.019913 0.0199152 0.0199176 0.0199204 0.0199235 0.019927 0.0199309 0.0199354 0.0199403 0.0199458 0.0199517 0.0199582 0.0199652 0.0199727 0.0199807 0.0199892 0.0199983 0.020008 0.0200182 0.020029 0.0200405 0.0200526 0.0200654 0.0200789 0.0200931 0.0201081 0.0201239 0.0201406 0.0201581 0.0201765 0.0201959 0.0202162 0.0202375 0.0202598 0.0202831 0.0203074 0.0203327 0.020359 0.0203863 0.0204144 0.0204435 0.0204734 0.020504 0.0205354 0.0205674 0.0205999 0.020633 0.0206666 0.0207005 0.0207349 0.0207696 0.0208046 0.0208397 0.0208749 0.0209099 0.0209444 0.0209782 0.0210112 0.0210433 0.0210742 0.0211039 0.0211321 0.0211587 0.0211835 0.0212065 0.0212274 0.0212461 0.0212625 0.0212765 0.021288 0.0212969 0.0213031 0.0213065 0.021307 0.0213047 0.0212994 0.021291 0.0212797 0.0212653 0.0212479 0.0212274 0.0212038 0.0211772 0.0211475 0.0211147 0.0210788 0.0210398 0.0209976 0.0209523 0.0209037 0.0208518 0.0207965 0.0207377 0.0206752 0.0206088 0.0205383 0.0204632 0.0203833 0.0202981 0.0202072 0.0201098 0.0200054 0.0198933 0.0197726 0.0196425 0.0195021 0.0193504 0.0191865 0.0190092 0.0188176 0.0186106 0.0183874 0.0181477 0.0178925 0.0176244 0.0173487 0.0170757 0.0168204 0.0165794 0.0163466 0.0161249 0.0158352 0.0154562 0.0149864 0.0144629 0.0138775 0.0132653 0.0125955 0.0118847 0.0111209 0.0103257 0.00950969 0.00866997 0.00783022 0.00693963 0.00594796 0.0048512 0.00367002 0.00242979 0.00113301 -0.000250866 -0.00167635 -0.00324913 -0.00488273 -0.0064094 -0.00833871 -0.0105489 -0.0125858 -0.0146558 -0.0167521 -0.0209666 0 0 0 0 0 0 0 0 0 0 0 0 0 0 0 0 0 0 0 0 0 0 0 0 0 0 0 0 0 0 0 0 0 0 0 0 0 0 0 0 0 0 0 0 0 0 0 0 0 0 0 0 0 0 0 0 0 0 0 0 0 0 0 0 0 0 0 0 0 0 0 0 0 0 0 0 0 0 0 0 0 0 0 0 0 0 0 0 0 0 0 0 0 0 0 0 0 0 0 0 0 0 0 0 0 0 0 0 0 0 0 0 0 0 0 0 0 0 0 0 0 0 0 0 0 0 0 0 0 0 0 0 0 0 0 0 0 0 0 0 0 0 0 0 0 0 0 0 0 0 0 0 0 0 0 0 0 0 0 0 0 0 0 0 0 0 0 0 0 0 0 0 0 0 0 0 0 0 0 0 0 0 0 0 0 0 0 0 0 0 0 0 0 0 0 0 0 0 0 0 0 0 0 0 0 0 0 0 0 0 0 0 0 0 0 0 0 0 0 0 0 0 0 0 0 0 0 0 0 0 0 0 0 0 0 0 0 0 0 0 0 0 0 0 0 0 0 0 0 0 0 0 0 0 0 0 0 0 0 0 0 0 0 0 0 0 0 0 0 0 0 0 0 0 0 0 0 0 0 0 0 0 -0.00480705 -2.1684e-19 
0.02 0.02 0.02 0.02 0.02 0.02 0.02 0.02 0.02 0.02 0.02 0.02 0.02 0.02 0.02 0.02 0.02 0.02 0.02 0.02 0.02 0.02 0.02 0.02 0.02 0.02 0.02 0.02 0.02 0.02 0.02 0.02 0.02 0.02 0.02 0.02 0.02 0.02 0.02 0.02 0.02 0.02 0.02 0.02 0.02 0.02 0.02 0.02 0.02 0.02 0.02 0.02 0.02 0.02 0.02 0.02 0.02 0.02 0.02 0.02 0.02 0.02 0.02 0.02 0.02 0.02 0.02 0.02 0.02 0.02 0.02 0.02 0.02 0.02 0.02 0.02 0.02 0.02 0.02 0.0200001 0.0200001 0.0200001 0.0200001 0.0200001 0.0200001 0.0200001 0.0200001 0.0200001 0.0200001 0.0200001 0.0200001 0.0200002 0.0200002 0.0200002 0.0200002 0.0200002 0.0200002 0.0200002 0.0200003 0.0200003 0.0200003 0.0200003 0.0200003 0.0200004 0.0200004 0.0200004 0.0200004 0.0200004 0.0200005 0.0200005 0.0200005 0.0200005 0.0200005 0.0200005 0.0200006 0.0200006 0.0200006 0.0200005 0.0200005 0.0200005 0.0200005 0.0200004 0.0200004 0.0200003 0.0200002 0.0200001 0.0199999 0.0199998 0.0199996 0.0199994 0.0199991 0.0199988 0.0199985 0.0199981 0.0199976 0.0199971 0.0199966 0.0199959 0.0199952 0.0199945 0.0199936 0.0199927 0.0199916 0.0199905 0.0199893 0.019988 0.0199865 0.019985 0.0199833 0.0199815 0.0199796 0.0199776 0.0199754 0.0199732 0.0199708 0.0199683 0.0199657 0.019963 0.0199602 0.0199574 0.0199544 0.0199514 0.0199484 0.0199453 0.0199422 0.0199391 0.019936 0.019933 0.0199301 0.0199272 0.0199244 0.0199218 0.0199194 0.0199171 0.019915 0.0199132 0.0199116 0.0199103 0.0199093 0.0199087 0.0199083 0.0199083 0.0199087 0.0199095 0.0199106 0.0199122 0.0199142 0.0199165 0.0199193 0.0199223 0.0199258 0.0199296 0.0199339 0.0199386 0.0199439 0.0199496 0.0199559 0.0199626 0.0199699 0.0199777 0.019986 0.0199949 0.0200043 0.0200143 0.0200248 0.020036 0.0200477 0.0200601 0.0200731 0.0200868 0.0201013 0.0201164 0.0201324 0.0201491 0.0201666 0.020185 0.0202043 0.0202245 0.0202455 0.0202675 0.0202904 0.0203142 0.0203389 0.0203645 0.020391 0.0204184 0.0204466 0.0204755 0.0205053 0.0205357 0.0205668 0.0205985 0.0206309 0.0206638 0.0206972 0.020731 0.0207652 0.0207997 0.0208342 0.0208685 0.0209025 0.0209361 0.020969 0.0210012 0.0210324 0.0210625 0.0210913 0.0211187 0.0211445 0.0211686 0.0211908 0.0212109 0.0212289 0.0212446 0.0212579 0.0212687 0.0212769 0.0212823 0.021285 0.0212848 0.0212818 0.0212758 0.0212668 0.0212548 0.0212397 0.0212217 0.0212006 0.0211765 0.0211493 0.0211192 0.021086 0.0210498 0.0210105 0.0209681 0.0209227 0.0208741 0.0208222 0.020767 0.0207083 0.0206459 0.0205797 0.0205094 0.0204346 0.020355 0.0202701 0.0201795 0.0200825 0.0199785 0.0198668 0.0197466 0.0196171 0.0194773 0.0193264 0.0191632 0.0189868 0.0187963 0.0185908 0.0183701 0.0181344 0.0178859 0.0176291 0.0173701 0.0171167 0.0168765 0.0166471 0.016409 0.016125 0.0158052 0.0154089 0.0149422 0.0144221 0.013849 0.013236 0.0125691 0.0118609 0.0111083 0.0103307 0.00953263 0.00870502 0.0078251 0.00690207 0.00588797 0.00478588 0.00360889 0.00236696 0.00106325 -0.000310734 -0.00179109 -0.00334028 -0.004979 -0.0066612 -0.00836121 -0.0105117 -0.0124541 -0.0144486 -0.0165125 -0.019155 -0.0219117 -0.024147 -0.0267493 -0.0324879 0 0 0 0 0 0 0 0 0 0 0 0 0 0 0 0 0 0 0 0 0 0 0 0 0 0 0 0 0 0 0 0 0 0 0 0 0 0 0 0 0 0 0 0 0 0 0 0 0 0 0 0 0 0 0 0 0 0 0 0 0 0 0 0 0 0 0 0 0 0 0 0 0 0 0 0 0 0 0 0 0 0 0 0 0 0 0 0 0 0 0 0 0 0 0 0 0 0 0 0 0 0 0 0 0 0 0 0 0 0 0 0 0 0 0 0 0 0 0 0 0 0 0 0 0 0 0 0 0 0 0 0 0 0 0 0 0 0 0 0 0 0 0 0 0 0 0 0 0 0 0 0 0 0 0 0 0 0 0 0 0 0 0 0 0 0 0 0 0 0 0 0 0 0 0 0 0 0 0 0 0 0 0 0 0 0 0 0 0 0 0 0 0 0 0 0 0 0 0 0 0 0 0 0 0 0 0 0 0 0 0 0 0 0 0 0 0 0 0 0 0 0 0 0 0 0 0 0 0 0 0 0 0 0 0 0 0 0 0 0 0 0 0 0 0 0 0 0 0 0 0 0 0 0 0 0 0 0 0 0 0 0 0 0 0 0 0 0 0 0 0 0 0 0 0 0 0 -0.0172679 -0.008762 -1.51788e-18 
0.02 0.02 0.02 0.02 0.02 0.02 0.02 0.02 0.02 0.02 0.02 0.02 0.02 0.02 0.02 0.02 0.02 0.02 0.02 0.02 0.02 0.02 0.02 0.02 0.02 0.02 0.02 0.02 0.02 0.02 0.02 0.02 0.02 0.02 0.02 0.02 0.02 0.02 0.02 0.02 0.02 0.02 0.02 0.02 0.02 0.02 0.02 0.02 0.02 0.02 0.02 0.02 0.02 0.02 0.02 0.02 0.02 0.02 0.02 0.02 0.02 0.02 0.02 0.02 0.02 0.02 0.02 0.02 0.02 0.02 0.02 0.02 0.02 0.02 0.02 0.02 0.02 0.02 0.02 0.02 0.0200001 0.0200001 0.0200001 0.0200001 0.0200001 0.0200001 0.0200001 0.0200001 0.0200001 0.0200001 0.0200001 0.0200001 0.0200001 0.0200002 0.0200002 0.0200002 0.0200002 0.0200002 0.0200002 0.0200002 0.0200003 0.0200003 0.0200003 0.0200003 0.0200003 0.0200004 0.0200004 0.0200004 0.0200004 0.0200004 0.0200004 0.0200004 0.0200004 0.0200005 0.0200005 0.0200005 0.0200004 0.0200004 0.0200004 0.0200004 0.0200003 0.0200003 0.0200002 0.0200001 0.02 0.0199999 0.0199997 0.0199995 0.0199993 0.0199991 0.0199988 0.0199985 0.0199981 0.0199977 0.0199973 0.0199967 0.0199962 0.0199955 0.0199948 0.019994 0.0199931 0.0199922 0.0199911 0.01999 0.0199887 0.0199874 0.0199859 0.0199844 0.0199827 0.0199809 0.019979 0.0199769 0.0199748 0.0199725 0.0199701 0.0199676 0.019965 0.0199623 0.0199596 0.0199567 0.0199538 0.0199508 0.0199477 0.0199446 0.0199416 0.0199385 0.0199355 0.0199325 0.0199295 0.0199267 0.019924 0.0199214 0.0199191 0.0199168 0.0199149 0.0199131 0.0199116 0.0199104 0.0199095 0.019909 0.0199088 0.0199089 0.0199094 0.0199104 0.0199117 0.0199135 0.0199156 0.0199182 0.0199212 0.0199246 0.0199284 0.0199326 0.0199372 0.0199423 0.0199479 0.019954 0.0199606 0.0199677 0.0199753 0.0199835 0.0199922 0.0200014 0.0200111 0.0200214 0.0200323 0.0200438 0.0200558 0.0200685 0.0200818 0.0200957 0.0201103 0.0201256 0.0201417 0.0201584 0.020176 0.0201943 0.0202134 0.0202333 0.020254 0.0202756 0.0202981 0.0203213 0.0203454 0.0203704 0.0203961 0.0204227 0.02045 0.0204782 0.020507 0.0205366 0.020567 0.0205979 0.0206295 0.0206617 0.0206943 0.0207274 0.0207607 0.0207941 0.0208275 0.0208607 0.0208936 0.020926 0.0209579 0.0209889 0.0210191 0.0210481 0.0210759 0.0211023 0.0211271 0.0211502 0.0211715 0.0211907 0.0212078 0.0212226 0.021235 0.0212449 0.0212522 0.0212568 0.0212587 0.0212577 0.0212538 0.021247 0.0212372 0.0212245 0.0212088 0.02119 0.0211683 0.0211436 0.0211159 0.0210852 0.0210516 0.021015 0.0209754 0.0209329 0.0208873 0.0208386 0.0207867 0.0207316 0.020673 0.0206108 0.0205448 0.0204748 0.0204004 0.0203211 0.0202367 0.0201465 0.0200501 0.0199466 0.0198356 0.0197161 0.0195873 0.0194484 0.0192984 0.0191363 0.0189613 0.0187724 0.0185694 0.0183523 0.0181227 0.0178834 0.0176393 0.0173966 0.0171587 0.0169257 0.0166925 0.0164386 0.0161456 0.0157926 0.0153783 0.0149097 0.0143918 0.0138238 0.0132109 0.0125492 0.011848 0.0111077 0.010341 0.00954707 0.00871995 0.00783443 0.00687484 0.00583864 0.0047307 0.0035535 0.00230373 0.000982774 -0.000417409 -0.00189407 -0.00345643 -0.00510926 -0.00687025 -0.0087182 -0.0106321 -0.0125791 -0.0145576 -0.0168135 -0.0191175 -0.0216074 -0.0233818 -0.0260187 -0.029506 -0.0322315 -0.0349454 -0.0400594 -0.0412281 0 0 0 0 0 0 0 0 0 0 0 0 0 0 0 0 0 0 0 0 0 0 0 0 0 0 0 0 0 0 0 0 0 0 0 0 0 0 0 0 0 0 0 0 0 0 0 0 0 0 0 0 0 0 0 0 0 0 0 0 0 0 0 0 0 0 0 0 0 0 0 0 0 0 0 0 0 0 0 0 0 0 0 0 0 0 0 0 0 0 0 0 0 0 0 0 0 0 0 0 0 0 0 0 0 0 0 0 0 0 0 0 0 0 0 0 0 0 0 0 0 0 0 0 0 0 0 0 0 0 0 0 0 0 0 0 0 0 0 0 0 0 0 0 0 0 0 0 0 0 0 0 0 0 0 0 0 0 0 0 0 0 0 0 0 0 0 0 0 0 0 0 0 0 0 0 0 0 0 0 0 0 0 0 0 0 0 0 0 0 0 0 0 0 0 0 0 0 0 0 0 0 0 0 0 0 0 0 0 0 0 0 0 0 0 0 0 0 0 0 0 0 0 0 0 0 0 0 0 0 0 0 0 0 0 0 0 0 0 0 0 0 0 0 0 0 0 0 0 0 0 0 0 0 0 0 0 0 0 0 0 0 0 0 0 0 0 0 0 0 0 -0.0355433 -0.0300437 -0.021654 -0.0118206 1.0842e-18 
0.02 0.02 0.02 0.02 0.02 0.02 0.02 0.02 0.02 0.02 0.02 0.02 0.02 0.02 0.02 0.02 0.02 0.02 0.02 0.02 0.02 0.02 0.02 0.02 0.02 0.02 0.02 0.02 0.02 0.02 0.02 0.02 0.02 0.02 0.02 0.02 0.02 0.02 0.02 0.02 0.02 0.02 0.02 0.02 0.02 0.02 0.02 0.02 0.02 0.02 0.02 0.02 0.02 0.02 0.02 0.02 0.02 0.02 0.02 0.02 0.02 0.02 0.02 0.02 0.02 0.02 0.02 0.02 0.02 0.02 0.02 0.02 0.02 0.02 0.02 0.02 0.02 0.02 0.02 0.02 0.02 0.0200001 0.0200001 0.0200001 0.0200001 0.0200001 0.0200001 0.0200001 0.0200001 0.0200001 0.0200001 0.0200001 0.0200001 0.0200001 0.0200002 0.0200002 0.0200002 0.0200002 0.0200002 0.0200002 0.0200002 0.0200002 0.0200003 0.0200003 0.0200003 0.0200003 0.0200003 0.0200003 0.0200003 0.0200003 0.0200003 0.0200003 0.0200003 0.0200003 0.0200003 0.0200003 0.0200003 0.0200003 0.0200002 0.0200002 0.0200001 0.0200001 0.02 0.0199999 0.0199997 0.0199996 0.0199994 0.0199992 0.019999 0.0199988 0.0199985 0.0199981 0.0199977 0.0199973 0.0199968 0.0199963 0.0199957 0.019995 0.0199943 0.0199935 0.0199926 0.0199916 0.0199905 0.0199894 0.0199881 0.0199867 0.0199853 0.0199837 0.019982 0.0199802 0.0199782 0.0199762 0.019974 0.0199718 0.0199694 0.0199669 0.0199643 0.0199616 0.0199588 0.0199559 0.019953 0.01995 0.019947 0.019944 0.0199409 0.0199379 0.0199349 0.0199319 0.019929 0.0199263 0.0199236 0.0199211 0.0199188 0.0199167 0.0199148 0.0199131 0.0199117 0.0199106 0.0199099 0.0199094 0.0199094 0.0199097 0.0199104 0.0199115 0.019913 0.019915 0.0199174 0.0199202 0.0199235 0.0199272 0.0199313 0.0199359 0.0199409 0.0199464 0.0199524 0.0199589 0.0199658 0.0199733 0.0199813 0.0199899 0.0199989 0.0200085 0.0200186 0.0200293 0.0200405 0.0200523 0.0200646 0.0200776 0.0200911 0.0201053 0.0201201 0.0201355 0.0201516 0.0201684 0.0201858 0.020204 0.020223 0.0202426 0.020263 0.0202842 0.0203062 0.0203289 0.0203524 0.0203767 0.0204018 0.0204276 0.0204542 0.0204816 0.0205096 0.0205384 0.0205679 0.020598 0.0206287 0.0206599 0.0206915 0.0207234 0.0207555 0.0207876 0.0208197 0.0208516 0.0208832 0.0209143 0.0209448 0.0209745 0.0210034 0.0210311 0.0210577 0.0210829 0.0211065 0.0211284 0.0211485 0.0211666 0.0211826 0.0211963 0.0212077 0.0212166 0.0212229 0.0212266 0.0212274 0.0212255 0.0212207 0.0212131 0.0212024 0.0211889 0.0211723 0.0211529 0.0211304 0.0211051 0.0210768 0.0210456 0.0210115 0.0209746 0.0209347 0.0208919 0.0208461 0.0207974 0.0207455 0.0206904 0.020632 0.0205701 0.0205044 0.0204347 0.0203607 0.0202819 0.020198 0.0201085 0.0200127 0.01991 0.0197998 0.0196812 0.0195534 0.0194156 0.0192668 0.0191062 0.0189329 0.0187465 0.018547 0.0183352 0.0181133 0.0178847 0.0176535 0.0174237 0.017196 0.0169651 0.0167199 0.0164496 0.0161357 0.0157712 0.0153538 0.0148854 0.0143681 0.0138025 0.0131917 0.0125362 0.011843 0.0111133 0.0103516 0.00955371 0.00871134 0.00781137 0.00684124 0.00579796 0.00468301 0.00349771 0.00223922 0.000903099 -0.000508598 -0.00200036 -0.00357368 -0.00524452 -0.00700438 -0.0088619 -0.0107877 -0.0127888 -0.0148385 -0.0169684 -0.0193604 -0.0216956 -0.0239248 -0.0260545 -0.0292253 -0.0316967 -0.034268 -0.0376989 -0.0409687 -0.044674 -0.0487906 -0.057 0 0 0 0 0 0 0 0 0 0 0 0 0 0 0 0 0 0 0 0 0 0 0 0 0 0 0 0 0 0 0 0 0 0 0 0 0 0 0 0 0 0 0 0 0 0 0 0 0 0 0 0 0 0 0 0 0 0 0 0 0 0 0 0 0 0 0 0 0 0 0 0 0 0 0 0 0 0 0 0 0 0 0 0 0 0 0 0 0 0 0 0 0 0 0 0 0 0 0 0 0 0 0 0 0 0 0 0 0 0 0 0 0 0 0 0 0 0 0 0 0 0 0 0 0 0 0 0 0 0 0 0 0 0 0 0 0 0 0 0 0 0 0 0 0 0 0 0 0 0 0 0 0 0 0 0 0 0 0 0 0 0 0 0 0 0 0 0 0 0 0 0 0 0 0 0 0 0 0 0 0 0 0 0 0 0 0 0 0 0 0 0 -0.0442689 -0.0493988 -0.0520153 -0.0528282 -0.0531179 -0.0532098 -0.0532254 -0.0532115 -0.0531848 -0.0531522 -0.0531174 -0.0530829 -0.0530503 -0.0530211 -0.0529965 -0.0529775 -0.0529655 -0.0529616 -0.0529672 -0.0533295 -0.0572505 0 0 0 0 0 0 -0.0498115 -0.0536272 -0.0537722 -0.0540232 -0.0544365 -0.055029 -0.0572014 -0.0611175 -0.0678433 0 0 0 0 0 0 0 0 0 0 0 0 0 0 0 0 0 0 0 0 0 0 0 0 0 0 0 0 0 0 0 0 0 0 0 -0.0517349 -0.0528544 -0.0521146 -0.0493836 -0.0454046 -0.0397382 -0.0324957 -0.0239525 -0.0135884 2.1684e-19 