# vtk DataFile Version 2.0
iteration 1242
ASCII

DATASET STRUCTURED_POINTS
DIMENSIONS 621 64 1
ORIGIN 0 0 0
SPACING 0.00161031 0.00161031 0.00161031

POINT_DATA 39744
SCALARS P float 1
LOOKUP_TABLE default
0 0 0 0 0 0 0 0 0 0 0 0 0 0 0 0 0 0 0 0 0 0 0 0 0 0 0 0 0 0 0 0 0 0 0 0 0 0 0 0 0 0 0 0 0 0 0 0 0 0 0 0 0 0 0 0 0 0 0 0 0 0 0 0 0 0 0 0 0 0 0 0 0 0 0 0 0 0 0 0 0 0 0 0 0 0 0 0 0 0 0 0 0 0 0 0 0 0 0 0 0 0 0 0 0 0 0 0 0 0 0 0 0 0 0 0 0 0 0 0 0 0 0 0 0 0 0 0 0 0 0 0 0 0 0 0 0 0 0 0 0 0 0 0 0 0 0 0 0 0 0 0 0 0 0 0 0 0 0 0 0 0 0 0 0 0 0 0 0 0 0 0 0 0 0 0 0 0 0 0 0 0 0 0 0 0 0 0 0 0 0 0 0 0 0 0 0 0 0 0 0 0 0 0 0 0 0 0 0 0 0 0 0 0 0 0 0 0 0 0 0 0 0 0 0 0 0 0 0 0 0 0 0 0 0 0 0 0 0 0 0 0 0 0 0 0 0 0 0 0 0 0 0 0 0 0 0 0 0 0 0 0 0 0 0 0 0 0 0 0 0 0 0 0 0 0 0 0 0 0 0 0 0 0 0 0 0 0 0 0 0 0 0 0 0 0 0 0 0 0 0 0 0 0 0 0 0 0 0 0 0 0 0 0 0 0 0 0 0 0 0 0 0 0 0 0 0 0 0 0 0 0 0 0 0 0 0 0 0 0 0 0 0 0 0 0 0 0 0 0 0 0 0 0 0 0 0 0 0 0 0 0 0 0 0 0 0 0 0 0 0 0 0 0 0 0 0 0 0 0 0 0 0 0 0 0 0 0 0 0 0 0 0 0 0 0 0 0 0 0 0 0 0 0 0 0 0 0 0 0 0 0 0 0 0 0 0 0 0 0 0 0 0 0 0 0 0 0 0 0 0 0 0 0 0 0 0 0 0 0 0 0 0 0 0 0 0 0 0 0 0 0 0 0 0 0 0 0 0 0 0 0 0 0 0 0 0 0 0 0 0 0 0 0 0 0 0 0 0 0 0 0 0 0 0 0 0 0 0 0 0 0 0 0 0 0 0 0 0 0 0 0 0 0 0 0 0 0 0 0 0 0 0 0 0 0 0 0 0 0 0 0 0 0 0 0 0 0 0 0 0 0 0 0 0 0 0 0 0 0 0 0 0 0 0 0 0 0 0 0 0 0 0 0 0 0 0 0 0 0 0 0 0 0 0 0 0 0 0 0 0 0 0 0 0 0 0 0 0 0 0 0 0 0 0 0 0 0 0 0 0 0 0 0 0 0 0 0 0 0 0 0 0 0 0 0 0 0 0 0 0 0 0 0 0 0 0 0 0 0 0 
0.02 0.02 0.02 0.02 0.02 0.02 0.02 0.02 0.02 0.02 0.02 0.02 0.02 0.02 0.02 0.02 0.02 0.02 0.02 0.02 0.02 0.02 0.02 0.02 0.02 0.02 0.02 0.02 0.02 0.02 0.02 0.02 0.02 0.02 0.02 0.02 0.02 0.02 0.02 0.02 0.02 0.02 0.02 0.02 0.02 0.02 0.02 0.02 0.02 0.02 0.02 0.02 0.02 0.02 0.02 0.02 0.02 0.02 0.02 0.02 0.02 0.02 0.02 0.02 0.02 0.02 0.02 0.02 0.02 0.02 0.02 0.02 0.02 0.02 0.02 0.02 0.02 0.02 0.02 0.02 0.02 0.02 0.02 0.02 0.02 0.02 0.02 0.02 0.02 0.02 0.0200001 0.0200001 0.0200001 0.0200001 0.0200001 0.0200001 0.0200002 0.0200002 0.0200002 0.0200003 0.0200003 0.0200003 0.0200004 0.0200004 0.0200005 0.0200006 0.0200006 0.0200007 0.0200008 0.0200009 0.020001 0.0200011 0.0200013 0.0200014 0.0200016 0.0200017 0.0200019 0.0200021 0.0200024 0.0200026 0.0200029 0.0200031 0.0200034 0.0200038 0.0200041 0.0200044 0.0200048 0.0200052 0.0200056 0.020006 0.0200064 0.0200068 0.0200073 0.0200077 0.0200081 0.0200085 0.0200088 0.0200091 0.0200094 0.0200095 0.0200096 0.0200096 0.0200095 0.0200092 0.0200088 0.0200082 0.0200073 0.0200062 0.0200048 0.0200031 0.0200011 0.0199987 0.0199958 0.0199925 0.0199887 0.0199844 0.0199794 0.0199739 0.0199677 0.0199607 0.0199531 0.0199446 0.0199354 0.0199253 0.0199143 0.0199025 0.0198897 0.0198761 0.0198615 0.0198459 0.0198293 0.0198118 0.0197933 0.0197737 0.0197532 0.0197316 0.019709 0.0196854 0.0196608 0.0196352 0.0196086 0.0195811 0.0195526 0.0195232 0.0194929 0.0194618 0.0194298 0.0193969 0.0193633 0.0193288 0.0192936 0.0192576 0.0192208 0.0191833 0.0191451 0.0191061 0.0190664 0.0190261 0.018985 0.0189432 0.0189008 0.0188576 0.0188139 0.0187695 0.0187245 0.018679 0.0186329 0.0185864 0.0185394 0.0184921 0.0184444 0.0183966 0.0183486 0.0183007 0.0182528 0.0182052 0.0181579 0.0181112 0.0180651 0.0180198 0.0179756 0.0179325 0.0178908 0.0178505 0.017812 0.0177753 0.0177406 0.0177081 0.0176779 0.01765 0.0176247 0.017602 0.0175819 0.0175645 0.0175498 0.0175378 0.0175285 0.0175217 0.0175174 0.0175154 0.0175156 0.0175179 0.017522 0.0175276 0.0175346 0.0175427 0.0175516 0.017561 0.0175706 0.0175801 0.0175891 0.0175974 0.0176044 0.0176099 0.0176134 0.0176144 0.0176124 0.0176068 0.0175969 0.0175818 0.0175608 0.017533 0.0174969 0.0174499 0.017393 0.0173281 0.0172669 0.017197 0.0171179 0.0170289 0.0169294 0.0168185 0.0166954 0.0165592 0.0164088 0.016243 0.0160605 0.0158599 0.0156395 0.0153986 0.0151375 0.01485 0.014553 0.0142864 0.013982 0.0143851 0.01644 0 0 0 0 0 0 0 0 0 0 0 0 0 0 0 0 0 0 0 0 0 0 0 0 0 0 0 0 0 0 0 0 0 0 0 0 0 0 0 0 0 0 0 0 0 0 0 0 0 0 0 0 0 0 0 0 0 0 0 0 0 0 0 0 0 0 0 0 0 0 0 0 0 0 0 0 0 0 0 0 0 0 0 0 0 0 0 0 0 0 0 0 0 0 0 0 0 0 0 0 0 0 0 0 0 0 0 0 0 0 0 0 0 0 0 0 0 0 0 0 0 0 0 0 0 0 0 0 0 0 0 0 0 0 0 0 0 0 0 0 0 0 0 0 0 0 0 0 0 0 0 0 0 0 0 0 0 0 0 0 0 0 0 0 0 0 0 0 0 0 0 0 0 0 0 0 0 0 0 0 0 0 0 0 0 0 0 0 0 0 0 0 0 0 0 0 0 0 0 0 0 0 0 0 0 0 0 0 0 0 0 0 0 0 0 0 0 0 0 0 0 0 0 0 0 0 0 0 0 0 0 0 0 0 0 0 0 0 0 0 0 0 0 0 0 0 0 0 0 0 0 0 0 0 0 0 0 0 0 0 0 0 0 0 0 0 0 0 0 0 0 0 0 0 0 0 0 0 0 0 0 0 0 0 0 0 0 0 0 0 0 0 0 0 0 0 0 0 0 0 0 0 0 0 0 0 0 0 0 0 0 0 0 0 0 0 0 0 0 0 0 0 0 0 0 0 0 0 0 0 0 0 0 0 
0.02 0.02 0.02 0.02 0.02 0.02 0.02 0.02 0.02 0.02 0.02 0.02 0.02 0.02 0.02 0.02 0.02 0.02 0.02 0.02 0.02 0.02 0.02 0.02 0.02 0.02 0.02 0.02 0.02 0.02 0.02 0.02 0.02 0.02 0.02 0.02 0.02 0.02 0.02 0.02 0.02 0.02 0.02 0.02 0.02 0.02 0.02 0.02 0.02 0.02 0.02 0.02 0.02 0.02 0.02 0.02 0.02 0.02 0.02 0.02 0.02 0.02 0.02 0.02 0.02 0.02 0.02 0.02 0.02 0.02 0.02 0.02 0.02 0.02 0.02 0.02 0.02 0.02 0.02 0.02 0.02 0.02 0.02 0.02 0.02 0.02 0.02 0.02 0.02 0.0200001 0.0200001 0.0200001 0.0200001 0.0200001 0.0200001 0.0200002 0.0200002 0.0200002 0.0200002 0.0200003 0.0200003 0.0200004 0.0200004 0.0200005 0.0200005 0.0200006 0.0200007 0.0200008 0.0200009 0.020001 0.0200011 0.0200012 0.0200013 0.0200015 0.0200016 0.0200018 0.020002 0.0200022 0.0200025 0.0200027 0.020003 0.0200033 0.0200036 0.0200039 0.0200042 0.0200046 0.020005 0.0200054 0.0200058 0.0200062 0.0200066 0.020007 0.0200075 0.0200079 0.0200083 0.0200087 0.0200091 0.0200094 0.0200096 0.0200098 0.0200099 0.02001 0.0200098 0.0200096 0.0200092 0.0200086 0.0200077 0.0200067 0.0200053 0.0200036 0.0200016 0.0199992 0.0199964 0.0199932 0.0199894 0.0199851 0.0199802 0.0199747 0.0199685 0.0199616 0.019954 0.0199456 0.0199364 0.0199264 0.0199155 0.0199037 0.019891 0.0198774 0.0198629 0.0198474 0.0198309 0.0198134 0.019795 0.0197755 0.019755 0.0197335 0.019711 0.0196875 0.019663 0.0196375 0.019611 0.0195836 0.0195552 0.019526 0.0194958 0.0194648 0.0194329 0.0194002 0.0193667 0.0193324 0.0192974 0.0192615 0.019225 0.0191877 0.0191497 0.0191109 0.0190715 0.0190314 0.0189906 0.0189491 0.0189069 0.0188642 0.0188208 0.0187767 0.0187322 0.018687 0.0186414 0.0185952 0.0185487 0.0185018 0.0184547 0.0184073 0.0183599 0.0183124 0.0182651 0.018218 0.0181712 0.018125 0.0180795 0.0180347 0.017991 0.0179484 0.0179071 0.0178673 0.0178292 0.0177929 0.0177586 0.0177263 0.0176964 0.0176688 0.0176437 0.0176211 0.0176011 0.0175838 0.0175691 0.0175571 0.0175476 0.0175407 0.0175361 0.0175339 0.0175339 0.0175358 0.0175395 0.0175447 0.0175512 0.0175588 0.0175672 0.017576 0.0175849 0.0175937 0.017602 0.0176094 0.0176155 0.0176199 0.0176222 0.0176219 0.0176184 0.0176111 0.0175993 0.0175824 0.0175594 0.0175294 0.0174921 0.0174476 0.0173935 0.0173372 0.0172758 0.0172056 0.0171262 0.0170368 0.0169368 0.0168254 0.0167017 0.0165649 0.0164139 0.0162475 0.0160645 0.0158634 0.0156429 0.0154029 0.0151443 0.0148649 0.0145872 0.0143579 0.0140113 0.0139799 0.0144474 0.0138711 0.0131612 0.0125175 0.0119282 0.0113016 0.0106136 0.00981621 0.00887759 0.00798523 0.0072583 0.00657393 0.00681477 0 0 0 0 0 0 0 0 0 0 0 0 0 0 0 0 0 0 0 0 0 0 0 0 0 0 0 0 0 0 0 0 0 0 0 0 0 0 0 0 0 0 0 0 0 0 0 0 0 0 0 0 0 0 0 0 0 0 0 0 0 0 0 0 0 0 0 0 0 0 0 0 0 0 0 0 0 0 0 0 0 0 0 0 0 0 0 0 0 0 0 0 0 0 0 0 0 0 0 0 0 0 0 0 0 0 0 0 0 0 0 0 0 0 0 0 0 0 0 0 0 0 0 0 0 0 0 0 0 0 0 0 0 0 0 0 0 0 0 0 0 0 0 0 0 0 0 0 0 0 0 0 0 0 0 0 0 0 0 0 0 0 0 0 0 0 0 0 0 0 0 0 0 0 0 0 0 0 0 0 0 0 0 0 0 0 0 0 0 0 0 0 0 0 0 0 0 0 0 0 0 0 0 0 0 0 0 0 0 0 0 0 0 0 0 0 0 0 0 0 0 0 0 0 0 0 0 0 0 0 0 0 0 0 0 0 0 0 0 0 0 0 0 0 0 0 0 0 0 0 0 0 0 0 0 0 0 0 0 0 0 0 0 0 0 0 0 0 0 0 0 0 0 0 0 0 0 0 0 0 0 0 0 0 0 0 0 0 0 0 0 0 0 0 0 0 0 0 0 0 0 0 0 0 0 0 0 0 0 0 0 0 0 0 0 0 0 0 0 0 0 0 
0.02 0.02 0.02 0.02 0.02 0.02 0.02 0.02 0.02 0.02 0.02 0.02 0.02 0.02 0.02 0.02 0.02 0.02 0.02 0.02 0.02 0.02 0.02 0.02 0.02 0.02 0.02 0.02 0.02 0.02 0.02 0.02 0.02 0.02 0.02 0.02 0.02 0.02 0.02 0.02 0.02 0.02 0.02 0.02 0.02 0.02 0.02 0.02 0.02 0.02 0.02 0.02 0.02 0.02 0.02 0.02 0.02 0.02 0.02 0.02 0.02 0.02 0.02 0.02 0.02 0.02 0.02 0.02 0.02 0.02 0.02 0.02 0.02 0.02 0.02 0.02 0.02 0.02 0.02 0.02 0.02 0.02 0.02 0.02 0.02 0.02 0.02 0.02 0.0200001 0.0200001 0.0200001 0.0200001 0.0200001 0.0200001 0.0200002 0.0200002 0.0200002 0.0200002 0.0200003 0.0200003 0.0200004 0.0200004 0.0200005 0.0200005 0.0200006 0.0200006 0.0200007 0.0200008 0.0200009 0.020001 0.0200011 0.0200013 0.0200014 0.0200016 0.0200017 0.0200019 0.0200021 0.0200023 0.0200026 0.0200028 0.0200031 0.0200034 0.0200037 0.020004 0.0200044 0.0200047 0.0200051 0.0200055 0.0200059 0.0200064 0.0200068 0.0200073 0.0200077 0.0200081 0.0200086 0.020009 0.0200093 0.0200097 0.02001 0.0200102 0.0200103 0.0200103 0.0200102 0.02001 0.0200096 0.020009 0.0200082 0.0200072 0.0200058 0.0200042 0.0200022 0.0199999 0.0199971 0.0199938 0.0199901 0.0199858 0.019981 0.0199755 0.0199694 0.0199626 0.019955 0.0199466 0.0199375 0.0199275 0.0199166 0.0199048 0.0198922 0.0198786 0.0198641 0.0198487 0.0198322 0.0198148 0.0197964 0.019777 0.0197566 0.0197352 0.0197127 0.0196893 0.0196649 0.0196394 0.0196131 0.0195858 0.0195575 0.0195284 0.0194984 0.0194675 0.0194358 0.0194033 0.01937 0.0193359 0.0193011 0.0192655 0.0192292 0.0191922 0.0191545 0.0191161 0.0190771 0.0190374 0.018997 0.018956 0.0189143 0.0188721 0.0188292 0.0187858 0.0187419 0.0186974 0.0186524 0.018607 0.0185612 0.0185151 0.0184688 0.0184223 0.0183757 0.0183291 0.0182826 0.0182364 0.0181906 0.0181452 0.0181006 0.0180567 0.0180139 0.0179722 0.0179317 0.0178928 0.0178555 0.0178199 0.0177863 0.0177548 0.0177254 0.0176984 0.0176738 0.0176517 0.0176321 0.017615 0.0176006 0.0175887 0.0175793 0.0175724 0.0175678 0.0175655 0.0175652 0.0175668 0.0175702 0.017575 0.0175811 0.0175882 0.017596 0.0176042 0.0176125 0.0176206 0.017628 0.0176345 0.0176396 0.0176429 0.0176439 0.0176421 0.017637 0.017628 0.0176143 0.0175956 0.0175712 0.0175407 0.017504 0.0174604 0.0174119 0.0173576 0.0172957 0.017225 0.0171449 0.0170548 0.016954 0.0168417 0.016717 0.0165791 0.016427 0.0162595 0.0160754 0.0158738 0.0156534 0.0154148 0.0151641 0.0149029 0.0146462 0.0144733 0.0142673 0.0139811 0.0140326 0.013587 0.0130797 0.0124742 0.0118868 0.0112372 0.0105312 0.00974394 0.00888705 0.00803291 0.00727114 0.0063444 0.00572934 0.00467526 0.00338902 0.00212789 0.000782876 -0.000654615 -0.00185709 0 0 0 0 0 0 0 0 0 0 0 0 0 0 0 0 0 0 0 0 0 0 0 0 0 0 0 0 0 0 0 0 0 0 0 0 0 0 0 0 0 0 0 0 0 0 0 0 0 0 0 0 0 0 0 0 0 0 0 0 0 0 0 0 0 0 0 0 0 0 0 0 0 0 0 0 0 0 0 0 0 0 0 0 0 0 0 0 0 0 0 0 0 0 0 0 0 0 0 0 0 0 0 0 0 0 0 0 0 0 0 0 0 0 0 0 0 0 0 0 0 0 0 0 0 0 0 0 0 0 0 0 0 0 0 0 0 0 0 0 0 0 0 0 0 0 0 0 0 0 0 0 0 0 0 0 0 0 0 0 0 0 0 0 0 0 0 0 0 0 0 0 0 0 0 0 0 0 0 0 0 0 0 0 0 0 0 0 0 0 0 0 0 0 0 0 0 0 0 0 0 0 0 0 0 0 0 0 0 0 0 0 0 0 0 0 0 0 0 0 0 0 0 0 0 0 0 0 0 0 0 0 0 0 0 0 0 0 0 0 0 0 0 0 0 0 0 0 0 0 0 0 0 0 0 0 0 0 0 0 0 0 0 0 0 0 0 0 0 0 0 0 0 0 0 0 0 0 0 0 0 0 0 0 0 0 0 0 0 0 0 0 0 0 0 0 0 0 0 0 0 0 0 0 0 0 0 0 0 0 0 0 0 0 0 0 
0.02 0.02 0.02 0.02 0.02 0.02 0.02 0.02 0.02 0.02 0.02 0.02 0.02 0.02 0.02 0.02 0.02 0.02 0.02 0.02 0.02 0.02 0.02 0.02 0.02 0.02 0.02 0.02 0.02 0.02 0.02 0.02 0.02 0.02 0.02 0.02 0.02 0.02 0.02 0.02 0.02 0.02 0.02 0.02 0.02 0.02 0.02 0.02 0.02 0.02 0.02 0.02 0.02 0.02 0.02 0.02 0.02 0.02 0.02 0.02 0.02 0.02 0.02 0.02 0.02 0.02 0.02 0.02 0.02 0.02 0.02 0.02 0.02 0.02 0.02 0.02 0.02 0.02 0.02 0.02 0.02 0.02 0.02 0.02 0.02 0.02 0.02 0.0200001 0.0200001 0.0200001 0.0200001 0.0200001 0.0200001 0.0200002 0.0200002 0.0200002 0.0200002 0.0200003 0.0200003 0.0200003 0.0200004 0.0200004 0.0200005 0.0200005 0.0200006 0.0200007 0.0200008 0.0200009 0.020001 0.0200011 0.0200012 0.0200013 0.0200015 0.0200016 0.0200018 0.020002 0.0200022 0.0200024 0.0200027 0.0200029 0.0200032 0.0200035 0.0200038 0.0200042 0.0200045 0.0200049 0.0200053 0.0200057 0.0200061 0.0200066 0.020007 0.0200075 0.0200079 0.0200084 0.0200088 0.0200092 0.0200096 0.02001 0.0200103 0.0200105 0.0200106 0.0200107 0.0200106 0.0200104 0.02001 0.0200095 0.0200087 0.0200077 0.0200064 0.0200048 0.0200028 0.0200005 0.0199978 0.0199946 0.0199909 0.0199867 0.0199819 0.0199765 0.0199704 0.0199636 0.0199561 0.0199478 0.0199387 0.0199288 0.019918 0.0199063 0.0198937 0.0198802 0.0198657 0.0198503 0.019834 0.0198166 0.0197983 0.019779 0.0197587 0.0197373 0.019715 0.0196917 0.0196674 0.0196421 0.0196159 0.0195888 0.0195607 0.0195318 0.019502 0.0194714 0.0194399 0.0194077 0.0193747 0.0193409 0.0193064 0.0192712 0.0192354 0.0191988 0.0191616 0.0191237 0.0190852 0.019046 0.0190063 0.0189659 0.018925 0.0188835 0.0188415 0.0187989 0.0187558 0.0187122 0.0186682 0.0186238 0.0185791 0.0185341 0.0184888 0.0184434 0.018398 0.0183526 0.0183073 0.0182623 0.0182177 0.0181736 0.0181302 0.0180876 0.0180459 0.0180054 0.0179661 0.0179283 0.0178921 0.0178575 0.0178249 0.0177943 0.0177658 0.0177395 0.0177156 0.0176941 0.017675 0.0176583 0.0176442 0.0176325 0.0176232 0.0176163 0.0176116 0.0176091 0.0176085 0.0176098 0.0176127 0.017617 0.0176225 0.0176289 0.0176359 0.0176433 0.0176507 0.0176577 0.0176641 0.0176695 0.0176733 0.0176753 0.0176749 0.0176717 0.0176651 0.0176547 0.0176401 0.0176206 0.0175962 0.0175664 0.0175309 0.01749 0.0174429 0.0173885 0.017326 0.0172546 0.0171737 0.0170827 0.0169809 0.0168674 0.0167416 0.0166024 0.016449 0.0162802 0.0160952 0.0158933 0.0156747 0.0154416 0.0152037 0.0149661 0.0147372 0.0145539 0.0144046 0.0142462 0.0139214 0.0134807 0.0130081 0.0124457 0.0118573 0.0111967 0.0104851 0.00971419 0.00890287 0.00808354 0.00731094 0.00652666 0.0055646 0.00449838 0.00332671 0.00209303 0.000839675 -0.000551958 -0.00198903 -0.00357401 -0.00527198 -0.00704428 -0.00908566 -0.0117245 0 0 0 0 0 0 0 0 0 0 0 0 0 0 0 0 0 0 0 0 0 0 0 0 0 0 0 0 0 0 0 0 0 0 0 0 0 0 0 0 0 0 0 0 0 0 0 0 0 0 0 0 0 0 0 0 0 0 0 0 0 0 0 0 0 0 0 0 0 0 0 0 0 0 0 0 0 0 0 0 0 0 0 0 0 0 0 0 0 0 0 0 0 0 0 0 0 0 0 0 0 0 0 0 0 0 0 0 0 0 0 0 0 0 0 0 0 0 0 0 0 0 0 0 0 0 0 0 0 0 0 0 0 0 0 0 0 0 0 0 0 0 0 0 0 0 0 0 0 0 0 0 0 0 0 0 0 0 0 0 0 0 0 0 0 0 0 0 0 0 0 0 0 0 0 0 0 0 0 0 0 0 0 0 0 0 0 0 0 0 0 0 0 0 0 0 0 0 0 0 0 0 0 0 0 0 0 0 0 0 0 0 0 0 0 0 0 0 0 0 0 0 0 0 0 0 0 0 0 0 0 0 0 0 0 0 0 0 0 0 0 0 0 0 0 0 0 0 0 0 0 0 0 0 0 0 0 0 0 0 0 0 0 0 0 0 0 0 0 0 0 0 0 0 0 0 0 0 0 0 0 0 0 0 0 0 0 0 0 0 0 0 0 0 0 0 0 0 0 0 0 0 0 0 0 0 0 0 0 0 -6.50521e-19 
0.02 0.02 0.02 0.02 0.02 0.02 0.02 0.02 0.02 0.02 0.02 0.02 0.02 0.02 0.02 0.02 0.02 0.02 0.02 0.02 0.02 0.02 0.02 0.02 0.02 0.02 0.02 0.02 0.02 0.02 0.02 0.02 0.02 0.02 0.02 0.02 0.02 0.02 0.02 0.02 0.02 0.02 0.02 0.02 0.02 0.02 0.02 0.02 0.02 0.02 0.02 0.02 0.02 0.02 0.02 0.02 0.02 0.02 0.02 0.02 0.02 0.02 0.02 0.02 0.02 0.02 0.02 0.02 0.02 0.02 0.02 0.02 0.02 0.02 0.02 0.02 0.02 0.02 0.02 0.02 0.02 0.02 0.02 0.02 0.02 0.02 0.0200001 0.0200001 0.0200001 0.0200001 0.0200001 0.0200001 0.0200001 0.0200002 0.0200002 0.0200002 0.0200003 0.0200003 0.0200003 0.0200004 0.0200004 0.0200005 0.0200005 0.0200006 0.0200007 0.0200007 0.0200008 0.0200009 0.020001 0.0200011 0.0200013 0.0200014 0.0200015 0.0200017 0.0200019 0.0200021 0.0200023 0.0200025 0.0200028 0.020003 0.0200033 0.0200036 0.0200039 0.0200043 0.0200046 0.020005 0.0200054 0.0200058 0.0200063 0.0200067 0.0200072 0.0200077 0.0200081 0.0200086 0.020009 0.0200095 0.0200099 0.0200102 0.0200105 0.0200108 0.0200109 0.020011 0.020011 0.0200108 0.0200104 0.0200099 0.0200092 0.0200082 0.0200069 0.0200054 0.0200035 0.0200012 0.0199985 0.0199954 0.0199918 0.0199876 0.0199829 0.0199775 0.0199715 0.0199649 0.0199574 0.0199492 0.0199402 0.0199304 0.0199197 0.0199081 0.0198955 0.0198821 0.0198678 0.0198525 0.0198362 0.019819 0.0198008 0.0197816 0.0197614 0.0197402 0.0197181 0.019695 0.0196709 0.0196458 0.0196198 0.0195929 0.0195651 0.0195365 0.019507 0.0194767 0.0194456 0.0194138 0.0193812 0.0193478 0.0193138 0.0192792 0.0192438 0.0192079 0.0191713 0.0191341 0.0190963 0.0190579 0.019019 0.0189795 0.0189395 0.0188989 0.0188579 0.0188164 0.0187744 0.018732 0.0186892 0.0186461 0.0186027 0.018559 0.0185152 0.0184712 0.0184273 0.0183833 0.0183396 0.0182961 0.0182531 0.0182105 0.0181686 0.0181275 0.0180873 0.0180482 0.0180104 0.0179739 0.017939 0.0179057 0.0178743 0.0178447 0.0178172 0.0177919 0.0177688 0.0177479 0.0177294 0.0177132 0.0176994 0.0176879 0.0176787 0.0176718 0.0176669 0.017664 0.017663 0.0176637 0.017666 0.0176695 0.0176741 0.0176796 0.0176856 0.0176919 0.0176981 0.017704 0.0177092 0.0177132 0.0177158 0.0177166 0.017715 0.0177108 0.0177034 0.0176925 0.0176777 0.0176586 0.0176349 0.0176061 0.0175719 0.0175317 0.0174845 0.0174296 0.0173663 0.0172941 0.0172123 0.0171203 0.0170173 0.0169026 0.0167754 0.0166348 0.01648 0.0163101 0.0161246 0.015924 0.0157102 0.0154864 0.0152618 0.0150489 0.0148444 0.0146448 0.0144571 0.0142097 0.0138786 0.0134586 0.012978 0.0124263 0.0118328 0.0111708 0.0104629 0.00970975 0.00893473 0.0081304 0.0073216 0.00645892 0.00549423 0.00442548 0.00326844 0.00204155 0.000771254 -0.00056314 -0.00206192 -0.00360432 -0.00525928 -0.00700563 -0.00849073 -0.0110072 -0.0130605 -0.0152337 -0.0173053 -0.0219154 0 0 0 0 0 0 0 0 0 0 0 0 0 0 0 0 0 0 0 0 0 0 0 0 0 0 0 0 0 0 0 0 0 0 0 0 0 0 0 0 0 0 0 0 0 0 0 0 0 0 0 0 0 0 0 0 0 0 0 0 0 0 0 0 0 0 0 0 0 0 0 0 0 0 0 0 0 0 0 0 0 0 0 0 0 0 0 0 0 0 0 0 0 0 0 0 0 0 0 0 0 0 0 0 0 0 0 0 0 0 0 0 0 0 0 0 0 0 0 0 0 0 0 0 0 0 0 0 0 0 0 0 0 0 0 0 0 0 0 0 0 0 0 0 0 0 0 0 0 0 0 0 0 0 0 0 0 0 0 0 0 0 0 0 0 0 0 0 0 0 0 0 0 0 0 0 0 0 0 0 0 0 0 0 0 0 0 0 0 0 0 0 0 0 0 0 0 0 0 0 0 0 0 0 0 0 0 0 0 0 0 0 0 0 0 0 0 0 0 0 0 0 0 0 0 0 0 0 0 0 0 0 0 0 0 0 0 0 0 0 0 0 0 0 0 0 0 0 0 0 0 0 0 0 0 0 0 0 0 0 0 0 0 0 0 0 0 0 0 0 0 0 0 0 0 0 0 0 0 0 0 0 0 0 0 0 0 0 0 0 0 0 0 0 0 0 0 0 0 0 0 0 0 0 0 -0.00490114 -1.0842e-18 
0.02 0.02 0.02 0.02 0.02 0.02 0.02 0.02 0.02 0.02 0.02 0.02 0.02 0.02 0.02 0.02 0.02 0.02 0.02 0.02 0.02 0.02 0.02 0.02 0.02 0.02 0.02 0.02 0.02 0.02 0.02 0.02 0.02 0.02 0.02 0.02 0.02 0.02 0.02 0.02 0.02 0.02 0.02 0.02 0.02 0.02 0.02 0.02 0.02 0.02 0.02 0.02 0.02 0.02 0.02 0.02 0.02 0.02 0.02 0.02 0.02 0.02 0.02 0.02 0.02 0.02 0.02 0.02 0.02 0.02 0.02 0.02 0.02 0.02 0.02 0.02 0.02 0.02 0.02 0.02 0.02 0.02 0.02 0.02 0.02 0.0200001 0.0200001 0.0200001 0.0200001 0.0200001 0.0200001 0.0200001 0.0200002 0.0200002 0.0200002 0.0200002 0.0200003 0.0200003 0.0200003 0.0200004 0.0200004 0.0200005 0.0200006 0.0200006 0.0200007 0.0200008 0.0200009 0.020001 0.0200011 0.0200012 0.0200013 0.0200014 0.0200016 0.0200018 0.0200019 0.0200021 0.0200024 0.0200026 0.0200028 0.0200031 0.0200034 0.0200037 0.020004 0.0200044 0.0200048 0.0200051 0.0200056 0.020006 0.0200064 0.0200069 0.0200074 0.0200078 0.0200083 0.0200088 0.0200092 0.0200097 0.0200101 0.0200105 0.0200108 0.0200111 0.0200112 0.0200113 0.0200113 0.0200111 0.0200108 0.0200103 0.0200096 0.0200087 0.0200075 0.0200059 0.0200041 0.0200019 0.0199993 0.0199962 0.0199926 0.0199886 0.0199839 0.0199787 0.0199728 0.0199662 0.0199589 0.0199509 0.019942 0.0199323 0.0199217 0.0199102 0.0198978 0.0198845 0.0198703 0.0198551 0.019839 0.019822 0.0198039 0.0197849 0.0197649 0.019744 0.0197221 0.0196992 0.0196753 0.0196506 0.0196249 0.0195983 0.0195709 0.0195426 0.0195135 0.0194837 0.019453 0.0194217 0.0193896 0.0193569 0.0193235 0.0192894 0.0192548 0.0192195 0.0191837 0.0191474 0.0191105 0.019073 0.0190351 0.0189967 0.0189578 0.0189184 0.0188786 0.0188384 0.0187978 0.0187568 0.0187155 0.0186739 0.018632 0.01859 0.0185478 0.0185056 0.0184633 0.0184212 0.0183792 0.0183376 0.0182963 0.0182556 0.0182155 0.0181761 0.0181377 0.0181003 0.0180641 0.0180292 0.0179958 0.017964 0.0179339 0.0179057 0.0178793 0.017855 0.0178328 0.0178127 0.0177948 0.0177791 0.0177656 0.0177542 0.017745 0.0177379 0.0177327 0.0177293 0.0177277 0.0177277 0.017729 0.0177316 0.0177351 0.0177395 0.0177443 0.0177494 0.0177544 0.0177591 0.0177631 0.0177661 0.0177677 0.0177676 0.0177654 0.0177608 0.0177532 0.0177425 0.0177281 0.0177095 0.0176864 0.0176582 0.0176242 0.0175837 0.017536 0.0174804 0.0174164 0.0173432 0.0172604 0.0171672 0.017063 0.0169469 0.0168182 0.0166761 0.01652 0.0163496 0.016165 0.0159677 0.015761 0.0155497 0.0153401 0.0151395 0.0149464 0.0147439 0.0145 0.0142225 0.0138715 0.0134477 0.0129629 0.0124155 0.0118176 0.0111596 0.0104594 0.00972163 0.00896238 0.00816857 0.00732157 0.0064271 0.00544042 0.00436509 0.0032157 0.00198921 0.00069525 -0.000684514 -0.00214946 -0.00370473 -0.00535789 -0.00711011 -0.00901219 -0.0109707 -0.0129249 -0.0149782 -0.0171268 -0.0198131 -0.0226094 -0.0247214 -0.0270745 -0.0317295 -0.0325633 0 0 0 0 0 0 0 0 0 0 0 0 0 0 0 0 0 0 0 0 0 0 0 0 0 0 0 0 0 0 0 0 0 0 0 0 0 0 0 0 0 0 0 0 0 0 0 0 0 0 0 0 0 0 0 0 0 0 0 0 0 0 0 0 0 0 0 0 0 0 0 0 0 0 0 0 0 0 0 0 0 0 0 0 0 0 0 0 0 0 0 0 0 0 0 0 0 0 0 0 0 0 0 0 0 0 0 0 0 0 0 0 0 0 0 0 0 0 0 0 0 0 0 0 0 0 0 0 0 0 0 0 0 0 0 0 0 0 0 0 0 0 0 0 0 0 0 0 0 0 0 0 0 0 0 0 0 0 0 0 0 0 0 0 0 0 0 0 0 0 0 0 0 0 0 0 0 0 0 0 0 0 0 0 0 0 0 0 0 0 0 0 0 0 0 0 0 0 0 0 0 0 0 0 0 0 0 0 0 0 0 0 0 0 0 0 0 0 0 0 0 0 0 0 0 0 0 0 0 0 0 0 0 0 0 0 0 0 0 0 0 0 0 0 0 0 0 0 0 0 0 0 0 0 0 0 0 0 0 0 0 0 0 0 0 0 0 0 0 0 0 0 0 0 0 0 0 0 0 0 0 0 0 0 0 0 0 0 0 0 0 0 0 0 0 0 0 0 0 -0.0175427 -0.00892966 0 
0.02 0.02 0.02 0.02 0.02 0.02 0.02 0.02 0.02 0.02 0.02 0.02 0.02 0.02 0.02 0.02 0.02 0.02 0.02 0.02 0.02 0.02 0.02 0.02 0.02 0.02 0.02 0.02 0.02 0.02 0.02 0.02 0.02 0.02 0.02 0.02 0.02 0.02 0.02 0.02 0.02 0.02 0.02 0.02 0.02 0.02 0.02 0.02 0.02 0.02 0.02 0.02 0.02 0.02 0.02 0.02 0.02 0.02 0.02 0.02 0.02 0.02 0.02 0.02 0.02 0.02 0.02 0.02 0.02 0.02 0.02 0.02 0.02 0.02 0.02 0.02 0.02 0.02 0.02 0.02 0.02 0.02 0.02 0.02 0.0200001 0.0200001 0.0200001 0.0200001 0.0200001 0.0200001 0.0200001 0.0200002 0.0200002 0.0200002 0.0200002 0.0200003 0.0200003 0.0200003 0.0200004 0.0200004 0.0200005 0.0200005 0.0200006 0.0200007 0.0200007 0.0200008 0.0200009 0.020001 0.0200011 0.0200012 0.0200014 0.0200015 0.0200017 0.0200018 0.020002 0.0200022 0.0200024 0.0200027 0.0200029 0.0200032 0.0200035 0.0200038 0.0200041 0.0200045 0.0200049 0.0200053 0.0200057 0.0200061 0.0200066 0.020007 0.0200075 0.020008 0.0200085 0.020009 0.0200094 0.0200099 0.0200103 0.0200107 0.020011 0.0200113 0.0200115 0.0200116 0.0200116 0.0200115 0.0200112 0.0200108 0.0200101 0.0200092 0.020008 0.0200065 0.0200047 0.0200026 0.02 0.019997 0.0199936 0.0199896 0.019985 0.0199799 0.0199742 0.0199677 0.0199606 0.0199526 0.0199439 0.0199344 0.019924 0.0199127 0.0199005 0.0198874 0.0198733 0.0198583 0.0198424 0.0198256 0.0198077 0.019789 0.0197692 0.0197486 0.0197269 0.0197044 0.0196809 0.0196564 0.0196312 0.019605 0.019578 0.0195502 0.0195216 0.0194923 0.0194622 0.0194315 0.0194 0.019368 0.0193353 0.019302 0.0192682 0.0192339 0.019199 0.0191636 0.0191278 0.0190914 0.0190547 0.0190175 0.0189799 0.0189419 0.0189035 0.0188648 0.0188258 0.0187864 0.0187468 0.0187069 0.0186669 0.0186267 0.0185865 0.0185462 0.0185059 0.0184658 0.0184259 0.0183863 0.0183471 0.0183084 0.0182703 0.018233 0.0181966 0.0181611 0.0181268 0.0180937 0.018062 0.0180319 0.0180033 0.0179764 0.0179513 0.0179281 0.0179068 0.0178876 0.0178703 0.017855 0.0178418 0.0178305 0.0178212 0.0178137 0.0178081 0.0178041 0.0178017 0.0178007 0.0178011 0.0178026 0.017805 0.0178082 0.0178119 0.0178158 0.0178198 0.0178235 0.0178267 0.017829 0.01783 0.0178295 0.0178271 0.0178224 0.017815 0.0178045 0.0177903 0.0177721 0.0177491 0.0177207 0.0176863 0.0176452 0.0175968 0.0175405 0.0174756 0.0174015 0.0173176 0.0172232 0.0171175 0.017 0.0168698 0.0167264 0.0165696 0.0163995 0.0162173 0.0160253 0.0158276 0.0156288 0.0154317 0.0152366 0.0150401 0.0148238 0.0145702 0.0142588 0.0138851 0.013452 0.0129623 0.0124143 0.0118143 0.0111624 0.01047 0.00974229 0.00898547 0.00819078 0.0073369 0.00640731 0.0053994 0.00431684 0.00316317 0.00193377 0.000620344 -0.000770403 -0.00224898 -0.00380359 -0.00546991 -0.0072345 -0.00911562 -0.0110574 -0.0130172 -0.0150558 -0.0173428 -0.0197146 -0.0221905 -0.024352 -0.0267354 -0.0298738 -0.0326305 -0.0348787 -0.036746 -0.0389254 -0.0464855 0 0 0 0 0 0 0 0 0 0 0 0 0 0 0 0 0 0 0 0 0 0 0 0 0 0 0 0 0 0 0 0 0 0 0 0 0 0 0 0 0 0 0 0 0 0 0 0 0 0 0 0 0 0 0 0 0 0 0 0 0 0 0 0 0 0 0 0 0 0 0 0 0 0 0 0 0 0 0 0 0 0 0 0 0 0 0 0 0 0 0 0 0 0 0 0 0 0 0 0 0 0 0 0 0 0 0 0 0 0 0 0 0 0 0 0 0 0 0 0 0 0 0 0 0 0 0 0 0 0 0 0 0 0 0 0 0 0 0 0 0 0 0 0 0 0 0 0 0 0 0 0 0 0 0 0 0 0 0 0 0 0 0 0 0 0 0 0 0 0 0 0 0 0 0 0 0 0 0 0 0 0 0 0 0 0 0 0 0 0 0 0 0 0 0 0 0 0 0 0 0 0 0 0 0 0 0 0 0 0 0 0 0 0 0 0 0 0 0 0 0 0 0 0 0 0 0 0 0 0 0 0 0 0 0 0 0 0 0 0 0 0 0 0 0 0 0 0 0 0 0 0 0 0 0 0 0 0 0 0 0 0 0 0 0 0 0 0 0 0 0 0 0 0 0 0 0 0 0 0 0 0 0 0 0 0 0 0 0 0 0 0 0 -0.0364673 -0.0305478 -0.0219573 -0.0119857 -3.03577e-18 
0.02 0.02 0.02 0.02 0.02 0.02 0.02 0.02 0.02 0.02 0.02 0.02 0.02 0.02 0.02 0.02 0.02 0.02 0.02 0.02 0.02 0.02 0.02 0.02 0.02 0.02 0.02 0.02 0.02 0.02 0.02 0.02 0.02 0.02 0.02 0.02 0.02 0.02 0.02 0.02 0.02 0.02 0.02 0.02 0.02 0.02 0.02 0.02 0.02 0.02 0.02 0.02 0.02 0.02 0.02 0.02 0.02 0.02 0.02 0.02 0.02 0.02 0.02 0.02 0.02 0.02 0.02 0.02 0.02 0.02 0.02 0.02 0.02 0.02 0.02 0.02 0.02 0.02 0.02 0.02 0.02 0.02 0.02 0.0200001 0.0200001 0.0200001 0.0200001 0.0200001 0.0200001 0.0200001 0.0200002 0.0200002 0.0200002 0.0200002 0.0200002 0.0200003 0.0200003 0.0200004 0.0200004 0.0200004 0.0200005 0.0200006 0.0200006 0.0200007 0.0200008 0.0200008 0.0200009 0.020001 0.0200012 0.0200013 0.0200014 0.0200016 0.0200017 0.0200019 0.0200021 0.0200023 0.0200025 0.0200028 0.020003 0.0200033 0.0200036 0.0200039 0.0200042 0.0200046 0.020005 0.0200054 0.0200058 0.0200062 0.0200067 0.0200072 0.0200077 0.0200082 0.0200086 0.0200091 0.0200096 0.0200101 0.0200105 0.0200109 0.0200113 0.0200116 0.0200118 0.020012 0.020012 0.0200119 0.0200116 0.0200112 0.0200105 0.0200097 0.0200086 0.0200072 0.0200054 0.0200033 0.0200008 0.0199979 0.0199945 0.0199907 0.0199862 0.0199812 0.0199756 0.0199693 0.0199623 0.0199546 0.0199461 0.0199367 0.0199265 0.0199155 0.0199035 0.0198906 0.0198768 0.0198621 0.0198464 0.0198298 0.0198122 0.0197938 0.0197743 0.019754 0.0197327 0.0197105 0.0196874 0.0196634 0.0196386 0.019613 0.0195865 0.0195592 0.0195313 0.0195026 0.0194732 0.0194431 0.0194125 0.0193812 0.0193494 0.019317 0.0192842 0.0192508 0.019217 0.0191828 0.0191481 0.019113 0.0190776 0.0190418 0.0190057 0.0189692 0.0189325 0.0188955 0.0188582 0.0188207 0.0187829 0.0187451 0.018707 0.018669 0.0186308 0.0185927 0.0185547 0.0185168 0.0184792 0.0184419 0.018405 0.0183685 0.0183327 0.0182977 0.0182634 0.0182301 0.0181978 0.0181667 0.0181369 0.0181085 0.0180815 0.0180561 0.0180324 0.0180104 0.0179901 0.0179716 0.0179549 0.01794 0.017927 0.0179157 0.0179061 0.0178983 0.0178921 0.0178874 0.0178842 0.0178823 0.0178817 0.0178822 0.0178836 0.0178858 0.0178886 0.0178917 0.017895 0.0178981 0.0179007 0.0179026 0.0179033 0.0179027 0.0179002 0.0178955 0.0178881 0.0178775 0.0178632 0.0178447 0.0178214 0.0177925 0.0177575 0.0177158 0.0176667 0.0176095 0.0175437 0.0174685 0.0173834 0.0172876 0.0171806 0.0170616 0.0169301 0.0167858 0.0166289 0.0164604 0.0162822 0.016097 0.0159082 0.0157192 0.0155302 0.0153365 0.0151281 0.014895 0.0146192 0.0142917 0.0139084 0.0134686 0.012973 0.0124228 0.0118226 0.0111762 0.0104903 0.00976636 0.00900401 0.0081939 0.00732493 0.00638431 0.00536878 0.00427852 0.00311391 0.00187357 0.000551209 -0.000857105 -0.00235077 -0.00392899 -0.00560264 -0.00739036 -0.00924091 -0.0111873 -0.0132004 -0.0152873 -0.0174274 -0.0198454 -0.0220922 -0.024344 -0.0268718 -0.0295616 -0.0320535 -0.0342888 -0.0362489 -0.0385729 -0.042141 -0.0451923 -0.0467868 -0.0481127 -0.0488419 -0.0521062 -0.0615095 0 0 0 0 0 0 0 0 0 0 0 0 0 0 0 0 0 0 0 0 0 0 0 0 0 0 0 0 0 0 0 0 0 0 0 0 0 0 0 0 0 0 0 0 0 0 0 0 0 0 0 0 0 0 0 0 0 0 0 0 0 0 0 0 0 0 0 0 0 0 0 0 0 0 0 0 0 0 0 0 0 0 0 0 0 0 0 0 0 0 0 0 0 0 0 0 0 0 0 0 0 0 0 0 0 0 0 0 0 0 0 0 0 0 0 0 0 0 0 0 0 0 0 0 0 0 0 0 0 0 0 0 0 0 0 0 0 0 0 0 0 0 0 0 0 0 0 0 0 0 0 0 0 0 0 0 0 0 0 0 0 0 0 0 0 0 0 0 0 0 0 0 0 0 0 0 0 0 0 0 0 0 0 0 0 0 0 0 0 0 0 0 -0.0471771 -0.0524815 -0.0539929 -0.0545597 -0.0547806 -0.0548649 -0.0548948 -0.0549035 -0.0549036 -0.0549 -0.0548953 -0.0548908 -0.0548875 -0.0548858 -0.0548854 -0.0548856 -0.0548846 -0.0548805 -0.054871 -0.0548541 -0.0548282 -0.0547929 -0.0547482 -0.0546948 -0.0546338 -0.0545666 -0.0545004 -0.054453 -0.0544222 -0.0544415 -0.0545852 -0.0548921 -0.0568471 -0.0603076 -0.0672865 0 0 0 0 0 0 0 0 0 0 0 0 0 0 0 0 0 0 0 0 0 0 0 0 0 0 0 0 0 0 0 0 0 0 0 0 0 0 0 0 0 0 0 0 0 0 0 0 0 0 0 0 0 0 -0.0514284 -0.0541886 -0.0545251 -0.0533523 -0.0500589 -0.0461263 -0.0403084 -0.0329323 -0.0242468 -0.0137517 0 