# vtk DataFile Version 2.0
iteration 270
ASCII

DATASET STRUCTURED_POINTS
DIMENSIONS 621 64 1
ORIGIN 0 0 0
SPACING 0.00161031 0.00161031 0.00161031

POINT_DATA 39744
SCALARS P float 1
LOOKUP_TABLE default
0 0 0 0 0 0 0 0 0 0 0 0 0 0 0 0 0 0 0 0 0 0 0 0 0 0 0 0 0 0 0 0 0 0 0 0 0 0 0 0 0 0 0 0 0 0 0 0 0 0 0 0 0 0 0 0 0 0 0 0 0 0 0 0 0 0 0 0 0 0 0 0 0 0 0 0 0 0 0 0 0 0 0 0 0 0 0 0 0 0 0 0 0 0 0 0 0 0 0 0 0 0 0 0 0 0 0 0 0 0 0 0 0 0 0 0 0 0 0 0 0 0 0 0 0 0 0 0 0 0 0 0 0 0 0 0 0 0 0 0 0 0 0 0 0 0 0 0 0 0 0 0 0 0 0 0 0 0 0 0 0 0 0 0 0 0 0 0 0 0 0 0 0 0 0 0 0 0 0 0 0 0 0 0 0 0 0 0 0 0 0 0 0 0 0 0 0 0 0 0 0 0 0 0 0 0 0 0 0 0 0 0 0 0 0 0 0 0 0 0 0 0 0 0 0 0 0 0 0 0 0 0 0 0 0 0 0 0 0 0 0 0 0 0 0 0 0 0 0 0 0 0 0 0 0 0 0 0 0 0 0 0 0 0 0 0 0 0 0 0 0 0 0 0 0 0 0 0 0 0 0 0 0 0 0 0 0 0 0 0 0 0 0 0 0 0 0 0 0 0 0 0 0 0 0 0 0 0 0 0 0 0 0 0 0 0 0 0 0 0 0 0 0 0 0 0 0 0 0 0 0 0 0 0 0 0 0 0 0 0 0 0 0 0 0 0 0 0 0 0 0 0 0 0 0 0 0 0 0 0 0 0 0 0 0 0 0 0 0 0 0 0 0 0 0 0 0 0 0 0 0 0 0 0 0 0 0 0 0 0 0 0 0 0 0 0 0 0 0 0 0 0 0 0 0 0 0 0 0 0 0 0 0 0 0 0 0 0 0 0 0 0 0 0 0 0 0 0 0 0 0 0 0 0 0 0 0 0 0 0 0 0 0 0 0 0 0 0 0 0 0 0 0 0 0 0 0 0 0 0 0 0 0 0 0 0 0 0 0 0 0 0 0 0 0 0 0 0 0 0 0 0 0 0 0 0 0 0 0 0 0 0 0 0 0 0 0 0 0 0 0 0 0 0 0 0 0 0 0 0 0 0 0 0 0 0 0 0 0 0 0 0 0 0 0 0 0 0 0 0 0 0 0 0 0 0 0 0 0 0 0 0 0 0 0 0 0 0 0 0 0 0 0 0 0 0 0 0 0 0 0 0 0 0 0 0 0 0 0 0 0 0 0 0 0 0 0 0 0 0 0 0 0 0 0 0 0 0 0 0 0 0 0 0 0 0 0 0 0 0 0 0 0 0 0 0 0 0 0 0 0 0 0 0 0 0 0 0 0 0 0 
0.02 0.0199963 0.0199923 0.0199878 0.0199831 0.0199784 0.0199739 0.01997 0.019967 0.0199654 0.0199655 0.0199677 0.0199725 0.0199797 0.0199891 0.02 0.0200131 0.0200322 0.0200555 0.0200827 0.0201138 0.0201488 0.0201873 0.0202291 0.0202736 0.0203203 0.0203682 0.0204162 0.020463 0.0205068 0.0205452 0.0205749 0.0205908 0.0205842 0.0205441 0.0204662 0.0203622 0.0201812 0.0200244 0.0201242 0.0233074 0 0 0 0 0 0 0 0 0 0 0 0 0 0 0 0 0 0 0 0 0 0 0 0 0 0 0 0 0 0 0 0 0 0 0 0 0 0 0 0 0 0 0 0 0 0 0 0 0 0 0 0 0 0 0 0 0 0 0 0 0 0 0 0 0 0 0 0 0 0 0 0 0 0 0 0 0 0 0 0 0 0 0 0 0 0 0 0 0 0 0 0 0 0 0 0 0 0 0 0 0 0 0 0 0 0 0 0 0 0 0 0 0 0 0 0 0 0 0 0 0 0 0 0 0 0 0 0 0 0 0 0 0 0 0 0 0 0 0 0 0 0 0 0 0 0 0 0 0 0 0 0 0 0 0 0 0 0 0 0 0 0 0 0 0 0 0 0 0 0 0 0 0 0 0 0 0 0 0 0 0 0 0 0 0 0 0 0 0 0 0 0 0 0 0 0 0 0 0 0 0 0 0 0 0 0 0 0 0 0 0 0 0 0 0 0 0 0 0 0 0 0 0 0 0 0 0 0 0 0 0 0 0 0 0 0 0 0 0 0 0 0 0 0 0 0 0 0 0 0 0 0 0 0 0 0 0 0 0 0 0 0 0 0 0 0 0 0 0 0 0 0 0 0 0 0 0 0 0 0 0 0 0 0 0 0 0 0 0 0 0 0 0 0 0 0 0 0 0 0 0 0 0 0 0 0 0 0 0 0 0 0 0 0 0 0 0 0 0 0 0 0 0 0 0 0 0 0 0 0 0 0 0 0 0 0 0 0 0 0 0 0 0 0 0 0 0 0 0 0 0 0 0 0 0 0 0 0 0 0 0 0 0 0 0 0 0 0 0 0 0 0 0 0 0 0 0 0 0 0 0 0 0 0 0 0 0 0 0 0 0 0 0 0 0 0 0 0 0 0 0 0 0 0 0 0 0 0 0 0 0 0 0 0 0 0 0 0 0 0 0 0 0 0 0 0 0 0 0 0 0 0 0 0 0 0 0 0 0 0 0 0 0 0 0 0 0 0 0 0 0 0 0 0 0 0 0 0 0 0 0 0 0 0 0 0 0 0 0 0 0 0 0 0 0 0 0 0 0 0 0 0 0 0 0 0 0 0 0 0 0 0 0 0 0 0 0 0 0 0 0 0 0 0 0 0 0 0 0 0 0 0 0 0 0 0 0 0 0 0 0 0 0 0 0 0 0 0 0 0 0 0 0 0 0 0 0 0 0 0 0 0 0 0 0 0 0 0 0 0 0 0 0 0 0 0 0 0 0 0 0 0 0 0 0 0 0 0 0 0 0 0 0 0 0 0 0 0 0 0 
0.02 0.0199967 0.0199929 0.0199887 0.0199842 0.0199797 0.0199754 0.0199716 0.0199687 0.0199671 0.019967 0.0199689 0.0199729 0.0199793 0.019988 0.0199989 0.0200134 0.0200323 0.020055 0.0200816 0.0201119 0.0201459 0.0201833 0.0202238 0.0202669 0.0203119 0.020358 0.0204041 0.0204489 0.0204906 0.0205268 0.0205546 0.0205685 0.0205597 0.0205183 0.0204408 0.0203492 0.0202353 0.0200597 0.0201395 0.0206322 0.0203601 0.0194652 0.0187779 0.0180717 0.0173075 0.0163969 0.0152878 0.0139165 0.0126968 0.0116127 0.0121483 0 0 0 0 0 0 0 0 0 0 0 0 0 0 0 0 0 0 0 0 0 0 0 0 0 0 0 0 0 0 0 0 0 0 0 0 0 0 0 0 0 0 0 0 0 0 0 0 0 0 0 0 0 0 0 0 0 0 0 0 0 0 0 0 0 0 0 0 0 0 0 0 0 0 0 0 0 0 0 0 0 0 0 0 0 0 0 0 0 0 0 0 0 0 0 0 0 0 0 0 0 0 0 0 0 0 0 0 0 0 0 0 0 0 0 0 0 0 0 0 0 0 0 0 0 0 0 0 0 0 0 0 0 0 0 0 0 0 0 0 0 0 0 0 0 0 0 0 0 0 0 0 0 0 0 0 0 0 0 0 0 0 0 0 0 0 0 0 0 0 0 0 0 0 0 0 0 0 0 0 0 0 0 0 0 0 0 0 0 0 0 0 0 0 0 0 0 0 0 0 0 0 0 0 0 0 0 0 0 0 0 0 0 0 0 0 0 0 0 0 0 0 0 0 0 0 0 0 0 0 0 0 0 0 0 0 0 0 0 0 0 0 0 0 0 0 0 0 0 0 0 0 0 0 0 0 0 0 0 0 0 0 0 0 0 0 0 0 0 0 0 0 0 0 0 0 0 0 0 0 0 0 0 0 0 0 0 0 0 0 0 0 0 0 0 0 0 0 0 0 0 0 0 0 0 0 0 0 0 0 0 0 0 0 0 0 0 0 0 0 0 0 0 0 0 0 0 0 0 0 0 0 0 0 0 0 0 0 0 0 0 0 0 0 0 0 0 0 0 0 0 0 0 0 0 0 0 0 0 0 0 0 0 0 0 0 0 0 0 0 0 0 0 0 0 0 0 0 0 0 0 0 0 0 0 0 0 0 0 0 0 0 0 0 0 0 0 0 0 0 0 0 0 0 0 0 0 0 0 0 0 0 0 0 0 0 0 0 0 0 0 0 0 0 0 0 0 0 0 0 0 0 0 0 0 0 0 0 0 0 0 0 0 0 0 0 0 0 0 0 0 0 0 0 0 0 0 0 0 0 0 0 0 0 0 0 0 0 0 0 0 0 0 0 0 0 0 0 0 0 0 0 0 0 0 0 0 0 0 0 0 0 0 0 0 0 0 0 0 0 0 0 0 0 0 0 0 0 0 0 0 0 0 0 0 0 0 0 0 0 0 0 0 0 0 0 0 0 0 0 0 0 0 0 0 0 0 0 0 0 0 0 0 0 0 0 0 0 0 0 0 0 0 0 0 0 0 0 0 0 0 0 0 0 0 0 0 0 0 
0.02 0.019997 0.0199934 0.0199894 0.0199851 0.0199808 0.0199767 0.0199731 0.0199703 0.0199687 0.0199686 0.0199703 0.0199741 0.0199802 0.0199888 0.0200004 0.0200156 0.0200345 0.0200571 0.0200834 0.0201133 0.0201467 0.0201833 0.0202228 0.0202646 0.020308 0.0203522 0.0203962 0.0204386 0.0204776 0.020511 0.0205357 0.0205467 0.0205357 0.0204938 0.0204213 0.0203502 0.020284 0.0201946 0.0202108 0.0202192 0.0199829 0.0193491 0.0187154 0.0179995 0.0172138 0.0162684 0.015157 0.0138983 0.0127374 0.0112588 0.0104901 0.00895408 0.00707579 0.00616665 0.00370924 0 0 0 0 0 0 0 0 0 0 0 0 0 0 0 0 0 0 0 0 0 0 0 0 0 0 0 0 0 0 0 0 0 0 0 0 0 0 0 0 0 0 0 0 0 0 0 0 0 0 0 0 0 0 0 0 0 0 0 0 0 0 0 0 0 0 0 0 0 0 0 0 0 0 0 0 0 0 0 0 0 0 0 0 0 0 0 0 0 0 0 0 0 0 0 0 0 0 0 0 0 0 0 0 0 0 0 0 0 0 0 0 0 0 0 0 0 0 0 0 0 0 0 0 0 0 0 0 0 0 0 0 0 0 0 0 0 0 0 0 0 0 0 0 0 0 0 0 0 0 0 0 0 0 0 0 0 0 0 0 0 0 0 0 0 0 0 0 0 0 0 0 0 0 0 0 0 0 0 0 0 0 0 0 0 0 0 0 0 0 0 0 0 0 0 0 0 0 0 0 0 0 0 0 0 0 0 0 0 0 0 0 0 0 0 0 0 0 0 0 0 0 0 0 0 0 0 0 0 0 0 0 0 0 0 0 0 0 0 0 0 0 0 0 0 0 0 0 0 0 0 0 0 0 0 0 0 0 0 0 0 0 0 0 0 0 0 0 0 0 0 0 0 0 0 0 0 0 0 0 0 0 0 0 0 0 0 0 0 0 0 0 0 0 0 0 0 0 0 0 0 0 0 0 0 0 0 0 0 0 0 0 0 0 0 0 0 0 0 0 0 0 0 0 0 0 0 0 0 0 0 0 0 0 0 0 0 0 0 0 0 0 0 0 0 0 0 0 0 0 0 0 0 0 0 0 0 0 0 0 0 0 0 0 0 0 0 0 0 0 0 0 0 0 0 0 0 0 0 0 0 0 0 0 0 0 0 0 0 0 0 0 0 0 0 0 0 0 0 0 0 0 0 0 0 0 0 0 0 0 0 0 0 0 0 0 0 0 0 0 0 0 0 0 0 0 0 0 0 0 0 0 0 0 0 0 0 0 0 0 0 0 0 0 0 0 0 0 0 0 0 0 0 0 0 0 0 0 0 0 0 0 0 0 0 0 0 0 0 0 0 0 0 0 0 0 0 0 0 0 0 0 0 0 0 0 0 0 0 0 0 0 0 0 0 0 0 0 0 0 0 0 0 0 0 0 0 0 0 0 0 0 0 0 0 0 0 0 0 0 0 0 0 0 0 0 0 0 0 0 0 0 0 0 0 0 0 0 0 0 0 0 0 0 0 0 0 0 0 0 0 0 0 0 0 0 0 0 0 0 0 0 0 0 -1.0842e-19 
0.02 0.0199972 0.0199938 0.01999 0.0199859 0.0199818 0.0199779 0.0199745 0.0199718 0.0199703 0.0199703 0.0199721 0.0199759 0.0199821 0.019991 0.0200031 0.0200185 0.0200375 0.0200599 0.0200859 0.0201153 0.0201479 0.0201835 0.0202215 0.0202616 0.020303 0.0203447 0.0203858 0.0204249 0.0204602 0.0204896 0.0205101 0.0205175 0.0205046 0.020464 0.0204006 0.0203429 0.020322 0.0202792 0.0201203 0.0200644 0.0197311 0.0192206 0.0186353 0.0179375 0.0171402 0.016197 0.0151173 0.0139524 0.012817 0.011652 0.0102313 0.00862844 0.00688048 0.00529831 0.00342647 0.00105834 -0.000632411 0 0 0 0 0 0 0 0 0 0 0 0 0 0 0 0 0 0 0 0 0 0 0 0 0 0 0 0 0 0 0 0 0 0 0 0 0 0 0 0 0 0 0 0 0 0 0 0 0 0 0 0 0 0 0 0 0 0 0 0 0 0 0 0 0 0 0 0 0 0 0 0 0 0 0 0 0 0 0 0 0 0 0 0 0 0 0 0 0 0 0 0 0 0 0 0 0 0 0 0 0 0 0 0 0 0 0 0 0 0 0 0 0 0 0 0 0 0 0 0 0 0 0 0 0 0 0 0 0 0 0 0 0 0 0 0 0 0 0 0 0 0 0 0 0 0 0 0 0 0 0 0 0 0 0 0 0 0 0 0 0 0 0 0 0 0 0 0 0 0 0 0 0 0 0 0 0 0 0 0 0 0 0 0 0 0 0 0 0 0 0 0 0 0 0 0 0 0 0 0 0 0 0 0 0 0 0 0 0 0 0 0 0 0 0 0 0 0 0 0 0 0 0 0 0 0 0 0 0 0 0 0 0 0 0 0 0 0 0 0 0 0 0 0 0 0 0 0 0 0 0 0 0 0 0 0 0 0 0 0 0 0 0 0 0 0 0 0 0 0 0 0 0 0 0 0 0 0 0 0 0 0 0 0 0 0 0 0 0 0 0 0 0 0 0 0 0 0 0 0 0 0 0 0 0 0 0 0 0 0 0 0 0 0 0 0 0 0 0 0 0 0 0 0 0 0 0 0 0 0 0 0 0 0 0 0 0 0 0 0 0 0 0 0 0 0 0 0 0 0 0 0 0 0 0 0 0 0 0 0 0 0 0 0 0 0 0 0 0 0 0 0 0 0 0 0 0 0 0 0 0 0 0 0 0 0 0 0 0 0 0 0 0 0 0 0 0 0 0 0 0 0 0 0 0 0 0 0 0 0 0 0 0 0 0 0 0 0 0 0 0 0 0 0 0 0 0 0 0 0 0 0 0 0 0 0 0 0 0 0 0 0 0 0 0 0 0 0 0 0 0 0 0 0 0 0 0 0 0 0 0 0 0 0 0 0 0 0 0 0 0 0 0 0 0 0 0 0 0 0 0 0 0 0 0 0 0 0 0 0 0 0 0 0 0 0 0 0 0 0 0 0 0 0 0 0 0 0 0 0 0 0 0 0 0 0 0 0 0 0 0 0 0 0 0 0 0 0 0 0 0 0 0 0 0 0 0 0 0 0 0 0 0 0 0 0 0 0 0 0 0 0 0 0 0 0 0 0 0 0 0 -0.00450512 0 
0.02 0.0199974 0.0199942 0.0199906 0.0199867 0.0199828 0.0199791 0.0199759 0.0199735 0.0199722 0.0199723 0.0199743 0.0199783 0.0199848 0.0199941 0.0200063 0.0200218 0.0200406 0.0200627 0.0200881 0.0201166 0.0201481 0.0201821 0.0202183 0.020256 0.0202945 0.020333 0.0203703 0.020405 0.0204356 0.0204598 0.0204751 0.0204782 0.0204643 0.020428 0.0203738 0.020323 0.020297 0.0202788 0.0201877 0.0199481 0.0195757 0.0191044 0.0185426 0.0178594 0.0170622 0.0161407 0.015123 0.014006 0.012852 0.0115877 0.010165 0.00856748 0.00685003 0.00509625 0.00320579 0.00115867 -0.00127021 -0.00397948 0 0 0 0 0 0 0 0 0 0 0 0 0 0 0 0 0 0 0 0 0 0 0 0 0 0 0 0 0 0 0 0 0 0 0 0 0 0 0 0 0 0 0 0 0 0 0 0 0 0 0 0 0 0 0 0 0 0 0 0 0 0 0 0 0 0 0 0 0 0 0 0 0 0 0 0 0 0 0 0 0 0 0 0 0 0 0 0 0 0 0 0 0 0 0 0 0 0 0 0 0 0 0 0 0 0 0 0 0 0 0 0 0 0 0 0 0 0 0 0 0 0 0 0 0 0 0 0 0 0 0 0 0 0 0 0 0 0 0 0 0 0 0 0 0 0 0 0 0 0 0 0 0 0 0 0 0 0 0 0 0 0 0 0 0 0 0 0 0 0 0 0 0 0 0 0 0 0 0 0 0 0 0 0 0 0 0 0 0 0 0 0 0 0 0 0 0 0 0 0 0 0 0 0 0 0 0 0 0 0 0 0 0 0 0 0 0 0 0 0 0 0 0 0 0 0 0 0 0 0 0 0 0 0 0 0 0 0 0 0 0 0 0 0 0 0 0 0 0 0 0 0 0 0 0 0 0 0 0 0 0 0 0 0 0 0 0 0 0 0 0 0 0 0 0 0 0 0 0 0 0 0 0 0 0 0 0 0 0 0 0 0 0 0 0 0 0 0 0 0 0 0 0 0 0 0 0 0 0 0 0 0 0 0 0 0 0 0 0 0 0 0 0 0 0 0 0 0 0 0 0 0 0 0 0 0 0 0 0 0 0 0 0 0 0 0 0 0 0 0 0 0 0 0 0 0 0 0 0 0 0 0 0 0 0 0 0 0 0 0 0 0 0 0 0 0 0 0 0 0 0 0 0 0 0 0 0 0 0 0 0 0 0 0 0 0 0 0 0 0 0 0 0 0 0 0 0 0 0 0 0 0 0 0 0 0 0 0 0 0 0 0 0 0 0 0 0 0 0 0 0 0 0 0 0 0 0 0 0 0 0 0 0 0 0 0 0 0 0 0 0 0 0 0 0 0 0 0 0 0 0 0 0 0 0 0 0 0 0 0 0 0 0 0 0 0 0 0 0 0 0 0 0 0 0 0 0 0 0 0 0 0 0 0 0 0 0 0 0 0 0 0 0 0 0 0 0 0 0 0 0 0 0 0 0 0 0 0 0 0 0 0 0 0 0 0 0 0 0 0 0 0 0 0 0 0 0 0 0 0 0 0 0 0 0 0 0 0 0 0 0 0 0 0 0 0 0 0 -0.0194099 -0.0145111 -0.00751081 -1.30104e-18 
0.02 0.0199975 0.0199945 0.0199911 0.0199875 0.0199838 0.0199803 0.0199774 0.0199752 0.0199742 0.0199747 0.0199769 0.0199812 0.019988 0.0199974 0.0200097 0.020025 0.0200434 0.0200648 0.0200893 0.0201166 0.0201464 0.0201784 0.0202119 0.0202465 0.0202814 0.0203156 0.0203481 0.0203775 0.0204022 0.0204202 0.0204293 0.0204275 0.0204128 0.0203829 0.0203383 0.0202893 0.0202409 0.0201779 0.0200444 0.0198033 0.0194507 0.0189953 0.0184379 0.0177651 0.0169801 0.0160897 0.0151122 0.0140358 0.0128373 0.0115492 0.0101031 0.00850929 0.0067769 0.00497392 0.00302883 0.00093075 -0.00139771 -0.00407885 -0.00789679 -0.012279 0 0 0 0 0 0 0 0 0 0 0 0 0 0 0 0 0 0 0 0 0 0 0 0 0 0 0 0 0 0 0 0 0 0 0 0 0 0 0 0 0 0 0 0 0 0 0 0 0 0 0 0 0 0 0 0 0 0 0 0 0 0 0 0 0 0 0 0 0 0 0 0 0 0 0 0 0 0 0 0 0 0 0 0 0 0 0 0 0 0 0 0 0 0 0 0 0 0 0 0 0 0 0 0 0 0 0 0 0 0 0 0 0 0 0 0 0 0 0 0 0 0 0 0 0 0 0 0 0 0 0 0 0 0 0 0 0 0 0 0 0 0 0 0 0 0 0 0 0 0 0 0 0 0 0 0 0 0 0 0 0 0 0 0 0 0 0 0 0 0 0 0 0 0 0 0 0 0 0 0 0 0 0 0 0 0 0 0 0 0 0 0 0 0 0 0 0 0 0 0 0 0 0 0 0 0 0 0 0 0 0 0 0 0 0 0 0 0 0 0 0 0 0 0 0 0 0 0 0 0 0 0 0 0 0 0 0 0 0 0 0 0 0 0 0 0 0 0 0 0 0 0 0 0 0 0 0 0 0 0 0 0 0 0 0 0 0 0 0 0 0 0 0 0 0 0 0 0 0 0 0 0 0 0 0 0 0 0 0 0 0 0 0 0 0 0 0 0 0 0 0 0 0 0 0 0 0 0 0 0 0 0 0 0 0 0 0 0 0 0 0 0 0 0 0 0 0 0 0 0 0 0 0 0 0 0 0 0 0 0 0 0 0 0 0 0 0 0 0 0 0 0 0 0 0 0 0 0 0 0 0 0 0 0 0 0 0 0 0 0 0 0 0 0 0 0 0 0 0 0 0 0 0 0 0 0 0 0 0 0 0 0 0 0 0 0 0 0 0 0 0 0 0 0 0 0 0 0 0 0 0 0 0 0 0 0 0 0 0 0 0 0 0 0 0 0 0 0 0 0 0 0 0 0 0 0 0 0 0 0 0 0 0 0 0 0 0 0 0 0 0 0 0 0 0 0 0 0 0 0 0 0 0 0 0 0 0 0 0 0 0 0 0 0 0 0 0 0 0 0 0 0 0 0 0 0 0 0 0 0 0 0 0 0 0 0 0 0 0 0 -0.0410028 -0.0437929 -0.0444588 -0.0496346 0 0 0 0 0 0 0 0 0 0 0 0 0 0 0 0 0 0 0 0 0 0 0 0 0 0 0 0 0 0 0 0 0 0 0 0 0 0 0 -0.0317368 -0.0346975 -0.0355907 -0.0358467 -0.0358756 -0.0358266 -0.0357165 -0.0355248 -0.0351907 -0.0345842 -0.0333686 -0.0309357 -0.0274776 -0.0226335 -0.0165313 -0.00916066 4.33681e-19 
0.02 0.0199977 0.0199948 0.0199917 0.0199883 0.0199848 0.0199817 0.019979 0.0199772 0.0199765 0.0199773 0.0199798 0.0199843 0.0199912 0.0200007 0.0200128 0.0200277 0.0200454 0.020066 0.0200891 0.0201147 0.0201422 0.0201714 0.0202017 0.0202323 0.0202626 0.0202916 0.0203183 0.0203413 0.020359 0.0203698 0.020372 0.0203646 0.0203481 0.0203227 0.020287 0.020239 0.0201749 0.0200742 0.0199144 0.0196651 0.0193176 0.0188698 0.0183186 0.0176594 0.0168939 0.0160302 0.0150744 0.01402 0.0128344 0.0115017 0.0100322 0.00843991 0.00671804 0.00484784 0.00285906 0.000714558 -0.00160928 -0.00413744 -0.00714655 -0.0117368 -0.0175905 0 0 0 0 0 0 0 0 0 0 0 0 0 0 0 0 0 0 0 0 0 0 0 0 0 0 0 0 0 0 0 0 0 0 0 0 0 0 0 0 0 0 0 0 0 0 0 0 0 0 0 0 0 0 0 0 0 0 0 0 0 0 0 0 0 0 0 0 0 0 0 0 0 0 0 0 0 0 0 0 0 0 0 0 0 0 0 0 0 0 0 0 0 0 0 0 0 0 0 0 0 0 0 0 0 0 0 0 0 0 0 0 0 0 0 0 0 0 0 0 0 0 0 0 0 0 0 0 0 0 0 0 0 0 0 0 0 0 0 0 0 0 0 0 0 0 0 0 0 0 0 0 0 0 0 0 0 0 0 0 0 0 0 0 0 0 0 0 0 0 0 0 0 0 0 0 0 0 0 0 0 0 0 0 0 0 0 0 0 0 0 0 0 0 0 0 0 0 0 0 0 0 0 0 0 0 0 0 0 0 0 0 0 0 0 0 0 0 0 0 0 0 0 0 0 0 0 0 0 0 0 0 0 0 0 0 0 0 0 0 0 0 0 0 0 0 0 0 0 0 0 0 0 0 0 0 0 0 0 0 0 0 0 0 0 0 0 0 0 0 0 0 0 0 0 0 0 0 0 0 0 0 0 0 0 0 0 0 0 0 0 0 0 0 0 0 0 0 0 0 0 0 0 0 0 0 0 0 0 0 0 0 0 0 0 0 0 0 0 0 0 0 0 0 0 0 0 0 0 0 0 0 0 0 0 0 0 0 0 0 0 0 0 0 0 0 0 0 0 0 0 0 0 0 0 0 0 0 0 0 0 0 0 0 0 0 0 0 0 0 0 0 0 0 0 0 0 0 0 0 0 0 0 0 0 0 0 0 0 0 0 0 0 0 0 0 0 0 0 0 0 0 0 0 0 0 0 0 0 0 0 0 0 0 0 0 0 0 0 0 0 0 0 0 0 0 0 0 0 0 0 0 0 0 0 0 0 0 0 0 0 0 0 0 0 0 0 0 0 0 0 0 0 0 0 0 0 0 0 0 0 0 0 0 0 0 0 0 0 0 0 0 0 0 0 0 0 0 0 0 0 0 0 0 0 0 0 0 0 0 -0.0328269 -0.0379507 -0.0423825 -0.0455374 -0.0475131 -0.0482953 -0.0484696 -0.0482548 -0.0473606 -0.0455252 -0.0448467 -0.0445687 -0.044929 -0.0447286 -0.0435031 -0.0423566 -0.0414226 -0.0407254 -0.0402445 -0.0398625 -0.0393644 -0.0386644 -0.0382735 -0.0380494 -0.0379053 -0.037823 -0.0377915 -0.0378003 -0.0378417 -0.0379112 -0.0380035 -0.0381125 -0.0382322 -0.0383569 -0.0384811 -0.0385995 -0.0387049 -0.0387778 -0.0387242 -0.0384115 -0.0382253 -0.0381162 -0.0380249 -0.0379334 -0.0378399 -0.0377493 -0.0376713 -0.0376122 -0.0375447 -0.0373581 -0.0368658 -0.0360162 -0.0353042 -0.0353492 -0.0356776 -0.035853 -0.0358722 -0.0358254 -0.0357176 -0.0355251 -0.0351796 -0.0345204 -0.0332544 -0.0310224 -0.0277229 -0.0232072 -0.0174425 -0.0100341 -1.73472e-18 
0.02 0.0199978 0.0199952 0.0199922 0.0199891 0.019986 0.0199831 0.0199808 0.0199793 0.0199789 0.01998 0.0199828 0.0199875 0.0199944 0.0200037 0.0200154 0.0200297 0.0200465 0.0200657 0.020087 0.0201103 0.020135 0.0201608 0.020187 0.0202129 0.0202377 0.0202606 0.0202805 0.0202961 0.0203059 0.0203086 0.020303 0.0202891 0.0202685 0.0202428 0.0202105 0.0201635 0.0200892 0.0199728 0.0197908 0.0195288 0.0191779 0.0187323 0.0181878 0.0175427 0.0167972 0.0159518 0.0150044 0.0139432 0.0127549 0.0114228 0.00994982 0.00834092 0.00659521 0.00470603 0.00266791 0.000484207 -0.00190668 -0.0044486 -0.00755672 -0.0110041 -0.0153685 -0.022616 0 0 0 0 0 0 0 0 0 0 0 0 0 0 0 0 0 0 0 0 0 0 0 0 0 0 0 0 0 0 0 0 0 0 0 0 0 0 0 0 0 0 0 0 0 0 0 0 0 0 0 0 0 0 0 0 0 0 0 0 0 0 0 0 0 0 0 0 0 0 0 0 0 0 0 0 0 0 0 0 0 0 0 0 0 0 0 0 0 0 0 0 0 0 0 0 0 0 0 0 0 0 0 0 0 0 0 0 0 0 0 0 0 0 0 0 0 0 0 0 0 0 0 0 0 0 0 0 0 0 0 0 0 0 0 0 0 0 0 0 0 0 0 0 0 0 0 0 0 0 0 0 0 0 0 0 0 0 0 0 0 0 0 0 0 0 0 0 0 0 0 0 0 0 0 0 0 0 0 0 0 0 0 0 0 0 0 0 0 0 0 0 0 0 0 0 0 0 0 0 0 0 0 0 0 0 0 0 0 0 0 0 0 0 0 0 0 0 0 0 0 0 0 0 0 0 0 0 0 0 0 0 0 0 0 0 0 0 0 0 0 0 0 0 0 0 0 0 0 0 0 0 0 0 0 0 0 0 0 0 0 0 0 0 0 0 0 0 0 0 0 0 0 0 0 0 0 0 0 0 0 0 0 0 0 0 0 0 0 0 0 0 0 0 0 0 0 0 0 0 0 0 0 0 0 0 0 0 0 0 0 0 0 0 0 0 0 0 0 0 0 0 0 0 0 0 0 0 0 0 0 0 0 0 0 0 0 0 0 0 0 0 0 0 0 0 0 0 0 0 0 0 0 0 0 0 0 0 0 0 0 0 0 0 0 0 0 0 0 0 0 0 0 0 0 0 0 0 0 0 0 0 0 0 0 0 0 0 0 0 0 0 0 0 0 0 0 0 0 0 0 0 0 0 0 0 0 0 0 0 0 0 0 0 0 0 0 0 0 0 0 0 0 0 0 0 0 0 0 0 0 0 0 0 0 0 0 0 0 0 0 0 0 0 0 0 0 0 0 0 0 0 0 0 0 0 0 0 0 0 0 0 0 0 0 0 0 0 0 0 0 0 0 0 0 0 0 0 0 0 0 0 0 0 0 0 0 0 -0.0356741 -0.0418044 -0.0385252 -0.0425595 -0.0454855 -0.0471224 -0.0479499 -0.0479945 -0.0477144 -0.0468998 -0.0457379 -0.0449602 -0.0444848 -0.0442822 -0.0440527 -0.0434053 -0.0424538 -0.041576 -0.0408489 -0.0402993 -0.0398504 -0.0393825 -0.0388335 -0.0384391 -0.0381779 -0.0380063 -0.0379023 -0.0378539 -0.0378502 -0.0378826 -0.0379453 -0.0380327 -0.0381384 -0.0382563 -0.0383803 -0.0385043 -0.0386209 -0.0387175 -0.0387626 -0.0387059 -0.0385312 -0.0383799 -0.0382557 -0.0381432 -0.0380323 -0.0379224 -0.0378175 -0.0377185 -0.0376077 -0.0374347 -0.0371243 -0.0366419 -0.0360588 -0.0357386 -0.0357261 -0.0358065 -0.0358677 -0.035857 -0.0357996 -0.0356851 -0.0354803 -0.0351002 -0.0343784 -0.0330697 -0.0309193 -0.0277829 -0.0235381 -0.0180013 -0.0105511 -1.51788e-18 
0.02 0.019998 0.0199955 0.0199928 0.0199899 0.0199871 0.0199846 0.0199826 0.0199815 0.0199814 0.0199827 0.0199856 0.0199904 0.0199972 0.0200062 0.0200174 0.0200307 0.0200463 0.0200637 0.0200829 0.0201033 0.0201247 0.0201463 0.0201677 0.0201881 0.0202068 0.0202227 0.0202349 0.0202422 0.0202433 0.0202371 0.0202228 0.0202011 0.0201738 0.0201424 0.0201052 0.0200531 0.0199704 0.0198396 0.0196461 0.0193772 0.0190242 0.0185812 0.0180447 0.017413 0.0166844 0.0158541 0.0149139 0.0138533 0.012659 0.0113236 0.00984439 0.00822116 0.00644743 0.0045227 0.00244223 0.000195729 -0.00223758 -0.00486332 -0.00778382 -0.0111111 -0.0147326 -0.0199901 -0.0278342 -0.031817 0 0 0 0 0 0 0 0 0 0 0 0 0 0 0 0 0 0 0 0 0 0 0 0 0 0 0 0 0 0 0 0 0 0 0 0 0 0 0 0 0 0 0 0 0 0 0 0 0 0 0 0 0 0 0 0 0 0 0 0 0 0 0 0 0 0 0 0 0 0 0 0 0 0 0 0 0 0 0 0 0 0 0 0 0 0 0 0 0 0 0 0 0 0 0 0 0 0 0 0 0 0 0 0 0 0 0 0 0 0 0 0 0 0 0 0 0 0 0 0 0 0 0 0 0 0 0 0 0 0 0 0 0 0 0 0 0 0 0 0 0 0 0 0 0 0 0 0 0 0 0 0 0 0 0 0 0 0 0 0 0 0 0 0 0 0 0 0 0 0 0 0 0 0 0 0 0 0 0 0 0 0 0 0 0 0 0 0 0 0 0 0 0 0 0 0 0 0 0 0 0 0 0 0 0 0 0 0 0 0 0 0 0 0 0 0 0 0 0 0 0 0 0 0 0 0 0 0 0 0 0 0 0 0 0 0 0 0 0 0 0 0 0 0 0 0 0 0 0 0 0 0 0 0 0 0 0 0 0 0 0 0 0 0 0 0 0 0 0 0 0 0 0 0 0 0 0 0 0 0 0 0 0 0 0 0 0 0 0 0 0 0 0 0 0 0 0 0 0 0 0 0 0 0 0 0 0 0 0 0 0 0 0 0 0 0 0 0 0 0 0 0 0 0 0 0 0 0 0 0 0 0 0 0 0 0 0 0 0 0 0 0 0 0 0 0 0 0 0 0 0 0 0 0 0 0 0 0 0 0 0 0 0 0 0 0 0 0 0 0 0 0 0 0 0 0 0 0 0 0 0 0 0 0 0 0 0 0 0 0 0 0 0 0 0 0 0 0 0 0 0 0 0 0 0 0 0 0 0 0 0 0 0 0 0 0 0 0 0 0 0 0 0 0 0 0 0 0 0 0 0 0 0 0 0 0 0 0 0 0 0 0 0 0 0 0 0 0 0 0 0 0 0 0 0 0 0 0 0 0 0 0 0 0 0 0 0 0 0 0 0 0 0 0 0 0 0 0 0 0 0 0 0 0 0 -0.0384528 -0.038202 -0.0384682 -0.0405852 -0.0429664 -0.0455247 -0.046663 -0.0471744 -0.0472089 -0.0469972 -0.0463123 -0.0454691 -0.0447624 -0.0442288 -0.0438533 -0.0435952 -0.0431768 -0.0424896 -0.0417355 -0.0410551 -0.0404956 -0.040021 -0.0395727 -0.0391142 -0.038718 -0.0384176 -0.0382062 -0.0380661 -0.0379859 -0.0379546 -0.0379642 -0.0380079 -0.0380796 -0.0381723 -0.0382797 -0.0383951 -0.0385108 -0.038616 -0.0386926 -0.0387142 -0.0386598 -0.0385396 -0.0384152 -0.0382965 -0.0381805 -0.0380638 -0.0379464 -0.0378282 -0.0377 -0.0375315 -0.0372813 -0.0369326 -0.0365222 -0.036135 -0.0359383 -0.0358887 -0.035882 -0.0358681 -0.0358277 -0.0357541 -0.0356276 -0.0354031 -0.0349857 -0.0342167 -0.0328905 -0.0308075 -0.0278211 -0.0237807 -0.0183824 -0.0108798 -2.1684e-19 
0.02 0.0199981 0.0199959 0.0199934 0.0199908 0.0199883 0.0199861 0.0199844 0.0199836 0.0199838 0.0199853 0.0199883 0.019993 0.0199996 0.0200081 0.0200185 0.0200307 0.0200447 0.0200601 0.0200766 0.0200938 0.0201112 0.0201282 0.0201442 0.0201585 0.0201702 0.0201784 0.0201823 0.0201805 0.0201722 0.0201563 0.0201326 0.0201019 0.0200655 0.0200245 0.0199763 0.0199126 0.0198193 0.0196795 0.0194783 0.0192048 0.0188516 0.0184135 0.0178865 0.0172671 0.0165512 0.0157318 0.0147977 0.0137376 0.0125421 0.0112036 0.00971561 0.00807436 0.00627558 0.00431131 0.00217928 -0.000134932 -0.00264596 -0.00535539 -0.00827199 -0.0114953 -0.0150991 -0.0192845 -0.0250708 -0.0341862 -0.0382626 0 0 0 0 0 0 0 0 0 0 0 0 0 0 0 0 0 0 0 0 0 0 0 0 0 0 0 0 0 0 0 0 0 0 0 0 0 0 0 0 0 0 0 0 0 0 0 0 0 0 0 0 0 0 0 0 0 0 0 0 0 0 0 0 0 0 0 0 0 0 0 0 0 0 0 0 0 0 0 0 0 0 0 0 0 0 0 0 0 0 0 0 0 0 0 0 0 0 0 0 0 0 0 0 0 0 0 0 0 0 0 0 0 0 0 0 0 0 0 0 0 0 0 0 0 0 0 0 0 0 0 0 0 0 0 0 0 0 0 0 0 0 0 0 0 0 0 0 0 0 0 0 0 0 0 0 0 0 0 0 0 0 0 0 0 0 0 0 0 0 0 0 0 0 0 0 0 0 0 0 0 0 0 0 0 0 0 0 0 0 0 0 0 0 0 0 0 0 0 0 0 0 0 0 0 0 0 0 0 0 0 0 0 0 0 0 0 0 0 0 0 0 0 0 0 0 0 0 0 0 0 0 0 0 0 0 0 0 0 0 0 0 0 0 0 0 0 0 0 0 0 0 0 0 0 0 0 0 0 0 0 0 0 0 0 0 0 0 0 0 0 0 0 0 0 0 0 0 0 0 0 0 0 0 0 0 0 0 0 0 0 0 0 0 0 0 0 0 0 0 0 0 0 0 0 0 0 0 0 0 0 0 0 0 0 0 0 0 0 0 0 0 0 0 0 0 0 0 0 0 0 0 0 0 0 0 0 0 0 0 0 0 0 0 0 0 0 0 0 0 0 0 0 0 0 0 0 0 0 0 0 0 0 0 0 0 0 0 0 0 0 0 0 0 0 0 0 0 0 0 0 0 0 0 0 0 0 0 0 0 0 0 0 0 0 0 0 0 0 0 0 0 0 0 0 0 0 0 0 0 0 0 0 0 0 0 0 0 0 0 0 0 0 0 0 0 0 0 0 0 0 0 0 0 0 0 0 0 0 0 0 0 0 0 0 0 0 0 0 0 0 0 0 0 0 0 0 0 0 0 0 0 0 0 0 0 0 0 0 0 0 0 0 0 0 0 0 0 0 0 0 0 0 -0.0358678 -0.0395884 -0.0405901 -0.040639 -0.0421433 -0.0436564 -0.0451807 -0.0458894 -0.046124 -0.0462135 -0.0460899 -0.0455559 -0.0449345 -0.044357 -0.0438802 -0.0434855 -0.0431896 -0.0428569 -0.0423885 -0.0418147 -0.0412316 -0.0407112 -0.040255 -0.0398363 -0.0394256 -0.0390473 -0.0387298 -0.0384842 -0.0383054 -0.038187 -0.0381202 -0.0380985 -0.0381147 -0.0381624 -0.0382346 -0.0383243 -0.038424 -0.0385239 -0.0386106 -0.0386656 -0.0386709 -0.03862 -0.0385267 -0.0384189 -0.0383065 -0.0381907 -0.0380705 -0.0379443 -0.0378069 -0.0376432 -0.0374277 -0.0371412 -0.0368022 -0.0364687 -0.0362072 -0.0360451 -0.0359534 -0.035894 -0.0358408 -0.0357768 -0.0356877 -0.035547 -0.0353007 -0.0348509 -0.0340519 -0.0327291 -0.0307147 -0.0278601 -0.0239707 -0.018655 -0.0110992 4.33681e-19 
0.02 0.0199983 0.0199963 0.019994 0.0199916 0.0199894 0.0199875 0.0199861 0.0199855 0.019986 0.0199876 0.0199906 0.0199952 0.0200014 0.0200093 0.0200187 0.0200296 0.0200417 0.0200548 0.0200684 0.020082 0.0200951 0.020107 0.0201172 0.0201248 0.020129 0.020129 0.0201238 0.0201125 0.0200941 0.020068 0.0200341 0.019993 0.019946 0.019893 0.0198311 0.0197526 0.0196451 0.0194943 0.0192865 0.0190113 0.0186609 0.0182296 0.0177126 0.0171048 0.0164001 0.0155898 0.0146626 0.0136061 0.01241 0.0110663 0.00956839 0.00790894 0.006081 0.00407793 0.00189289 -0.000479076 -0.00305778 -0.00586787 -0.00889175 -0.0121942 -0.0158215 -0.0196461 -0.0244596 -0.031115 -0.0406461 -0.0452397 0 0 0 0 0 0 0 0 0 0 0 0 0 0 0 0 0 0 0 0 0 0 0 0 0 0 0 0 0 0 0 0 0 0 0 0 0 0 0 0 0 0 0 0 0 0 0 0 0 0 0 0 0 0 0 0 0 0 0 0 0 0 0 0 0 0 0 0 0 0 0 0 0 0 0 0 0 0 0 0 0 0 0 0 0 0 0 0 0 0 0 0 0 0 0 0 0 0 0 0 0 0 0 0 0 0 0 0 0 0 0 0 0 0 0 0 0 0 0 0 0 0 0 0 0 0 0 0 0 0 0 0 0 0 0 0 0 0 0 0 0 0 0 0 0 0 0 0 0 0 0 0 0 0 0 0 0 0 0 0 0 0 0 0 0 0 0 0 0 0 0 0 0 0 0 0 0 0 0 0 0 0 0 0 0 0 0 0 0 0 0 0 0 0 0 0 0 0 0 0 0 0 0 0 0 0 0 0 0 0 0 0 0 0 0 0 0 0 0 0 0 0 0 0 0 0 0 0 0 0 0 0 0 0 0 0 0 0 0 0 0 0 0 0 0 0 0 0 0 0 0 0 0 0 0 0 0 0 0 0 0 0 0 0 0 0 0 0 0 0 0 0 0 0 0 0 0 0 0 0 0 0 0 0 0 0 0 0 0 0 0 0 0 0 0 0 0 0 0 0 0 0 0 0 0 0 0 0 0 0 0 0 0 0 0 0 0 0 0 0 0 0 0 0 0 0 0 0 0 0 0 0 0 0 0 0 0 0 0 0 0 0 0 0 0 0 0 0 0 0 0 0 0 0 0 0 0 0 0 0 0 0 0 0 0 0 0 0 0 0 0 0 0 0 0 0 0 0 0 0 0 0 0 0 0 0 0 0 0 0 0 0 0 0 0 0 0 0 0 0 0 0 0 0 0 0 0 0 0 0 0 0 0 0 0 0 0 0 0 0 0 0 0 0 0 0 0 0 0 0 0 0 0 0 0 0 0 0 0 0 0 0 0 0 0 0 0 0 0 0 0 0 0 0 0 0 0 0 0 0 0 0 0 0 0 0 0 0 0 0 0 0 0 0 0 0 0 0 0 0 -0.038778 -0.0374878 -0.0403327 -0.0422774 -0.0424772 -0.0424878 -0.0433203 -0.0440636 -0.0445577 -0.0447767 -0.0449986 -0.0451223 -0.0450373 -0.0446638 -0.0442326 -0.0438043 -0.0434246 -0.0430782 -0.0428043 -0.0425418 -0.0422157 -0.0417985 -0.041343 -0.040905 -0.0405025 -0.040126 -0.0397583 -0.0394051 -0.0390868 -0.038819 -0.0386067 -0.0384501 -0.0383451 -0.038287 -0.0382696 -0.0382868 -0.0383316 -0.0383968 -0.0384739 -0.0385514 -0.038615 -0.0386489 -0.0386416 -0.0385919 -0.0385105 -0.0384118 -0.0383034 -0.0381871 -0.0380617 -0.0379232 -0.0377628 -0.0375666 -0.0373213 -0.037028 -0.0367153 -0.0364309 -0.0362098 -0.0360549 -0.0359465 -0.0358625 -0.0357865 -0.0357056 -0.0356032 -0.0354477 -0.0351804 -0.0347052 -0.0338904 -0.0325854 -0.03064 -0.0278963 -0.0241182 -0.018853 -0.0112508 -2.1684e-18 
0.02 0.0199984 0.0199966 0.0199945 0.0199924 0.0199905 0.0199888 0.0199877 0.0199874 0.019988 0.0199897 0.0199927 0.019997 0.0200028 0.0200099 0.0200182 0.0200276 0.0200378 0.0200483 0.0200587 0.0200684 0.0200769 0.0200835 0.0200875 0.0200881 0.0200844 0.0200757 0.0200611 0.0200397 0.0200108 0.0199739 0.019929 0.0198768 0.0198178 0.0197516 0.0196751 0.0195811 0.0194591 0.0192967 0.0190818 0.0188043 0.0184562 0.0180313 0.0175236 0.0169267 0.0162322 0.0154303 0.0145093 0.0134572 0.0122626 0.0109155 0.00940674 0.00772769 0.0058696 0.00382399 0.00158324 -0.000860744 -0.00351903 -0.00640923 -0.00954592 -0.0129026 -0.0165296 -0.0203985 -0.024866 -0.0302788 -0.0373961 -0.0471721 -0.0513964 0 0 0 0 0 0 0 0 0 0 0 0 0 0 0 0 0 0 0 0 0 0 0 0 0 0 0 0 0 0 0 0 0 0 0 0 0 0 0 0 0 0 0 0 0 0 0 0 0 0 0 0 0 0 0 0 0 0 0 0 0 0 0 0 0 0 0 0 0 0 0 0 0 0 0 0 0 0 0 0 0 0 0 0 0 0 0 0 0 0 0 0 0 0 0 0 0 0 0 0 0 0 0 0 0 0 0 0 0 0 0 0 0 0 0 0 0 0 0 0 0 0 0 0 0 0 0 0 0 0 0 0 0 0 0 0 0 0 0 0 0 0 0 0 0 0 0 0 0 0 0 0 0 0 0 0 0 0 0 0 0 0 0 0 0 0 0 0 0 0 0 0 0 0 0 0 0 0 0 0 0 0 0 0 0 0 0 0 0 0 0 -0.108413 -0.121159 -0.121519 -0.120289 -0.118664 -0.116005 -0.113634 -0.113717 -0.126298 -0.116002 0 0 0 0 0 0 0 0 0 0 0 0 0 0 0 0 0 0 0 0 0 0 0 0 0 0 0 0 0 0 0 0 0 0 0 0 0 0 0 0 0 0 0 0 0 0 0 0 0 0 0 0 0 0 0 0 0 0 0 0 0 0 0 0 0 0 0 0 0 0 0 0 0 0 0 0 0 0 0 0 0 0 0 0 0 0 0 0 0 0 0 0 0 0 0 0 0 0 0 0 0 0 0 0 0 0 0 0 0 0 0 0 0 0 0 0 0 0 0 0 0 0 0 0 0 0 0 0 0 0 0 0 0 0 0 0 0 0 0 0 0 0 0 0 0 0 0 0 0 0 0 0 0 0 0 0 0 0 0 0 0 0 0 0 0 0 0 0 0 0 0 0 0 0 0 0 0 0 0 0 0 0 0 0 0 0 0 0 0 0 0 0 0 0 0 0 0 0 0 0 0 0 0 0 0 0 0 0 0 0 0 0 0 0 0 0 0 0 0 0 0 0 0 0 0 0 0 0 0 0 0 0 0 0 0 0 0 0 0 0 0 0 0 0 0 0 0 0 0 0 0 0 0 0 0 0 0 0 0 0 0 0 0 0 0 0 0 0 0 0 0 0 0 0 0 0 0 -0.0423297 -0.0414426 -0.0412093 -0.0427887 -0.0436402 -0.0435776 -0.0433285 -0.0435709 -0.0436487 -0.0436279 -0.0436728 -0.0439021 -0.0439964 -0.0439177 -0.0436867 -0.0434225 -0.0431425 -0.0428763 -0.0426178 -0.0424055 -0.0422079 -0.0419874 -0.0417114 -0.0413959 -0.0410666 -0.0407415 -0.0404214 -0.0400994 -0.0397777 -0.0394696 -0.0391917 -0.0389548 -0.0387651 -0.0386229 -0.0385266 -0.0384718 -0.0384534 -0.0384653 -0.0385 -0.0385481 -0.0385977 -0.038635 -0.0386473 -0.0386269 -0.038574 -0.0384955 -0.0383996 -0.0382913 -0.0381717 -0.0380385 -0.0378856 -0.0377032 -0.037482 -0.0372203 -0.0369311 -0.0366424 -0.0363853 -0.0361798 -0.0360232 -0.0359017 -0.0358014 -0.035711 -0.0356184 -0.0355049 -0.0353353 -0.0350493 -0.0345557 -0.033736 -0.0324567 -0.0305763 -0.0279249 -0.0242301 -0.0189974 -0.0113577 -2.1684e-18 
0.02 0.0199986 0.0199969 0.0199951 0.0199932 0.0199915 0.0199901 0.0199892 0.0199891 0.0199898 0.0199916 0.0199945 0.0199985 0.0200038 0.02001 0.0200172 0.020025 0.0200331 0.0200409 0.0200481 0.0200538 0.0200576 0.0200587 0.0200563 0.0200496 0.0200378 0.0200202 0.0199959 0.0199641 0.0199242 0.019876 0.0198195 0.0197552 0.0196834 0.0196032 0.0195114 0.0194018 0.0192652 0.0190908 0.018868 0.0185872 0.0182405 0.0178208 0.0173214 0.0167343 0.01605 0.0152574 0.0143441 0.0132975 0.0121051 0.0107551 0.00923615 0.00753755 0.00564867 0.00355971 0.00126218 -0.00125186 -0.0039931 -0.00698074 -0.0102279 -0.0137356 -0.0174838 -0.0214819 -0.0258044 -0.0308639 -0.0368918 -0.045795 -0.0523825 -0.0619252 0 0 0 0 0 0 0 0 0 0 0 0 0 0 0 0 0 0 0 0 0 0 0 0 0 0 0 0 0 0 0 0 0 0 0 0 0 0 0 0 0 0 0 0 0 0 0 0 0 0 0 0 0 0 0 0 0 0 0 0 0 0 0 0 0 0 0 0 0 0 0 0 0 0 0 0 0 0 0 0 0 0 0 0 0 0 0 0 0 0 0 0 0 0 0 0 0 0 0 0 0 0 0 0 0 0 0 0 0 0 -0.0941176 -0.100692 -0.10064 -0.100352 -0.100044 -0.0997024 -0.0993161 -0.0988739 -0.0983699 -0.0977738 -0.0970764 -0.0962168 -0.0950945 -0.0938177 -0.0924963 -0.0919049 -0.0914117 -0.0909417 -0.0912271 -0.0931464 -0.0973223 -0.102633 -0.107506 -0.111797 -0.118523 -0.137419 0 0 0 0 0 0 0 0 0 0 0 0 0 0 0 0 0 0 0 0 0 0 0 0 0 0 0 0 0 0 0 0 0 0 0 0 0 0 0 0 0 0 0 0 0 0 0 0 0 0 0 -0.102063 -0.112414 -0.115573 -0.119544 -0.122365 -0.122376 -0.120987 -0.119051 -0.116493 -0.114141 -0.113317 -0.115217 -0.11417 -0.109232 -0.105737 -0.103613 -0.119009 0 0 0 0 0 0 0 0 0 0 0 0 0 0 0 0 0 0 0 0 0 0 0 0 0 0 0 0 0 0 0 0 0 0 0 0 0 0 0 0 0 0 0 0 0 0 0 0 0 0 0 0 0 0 0 0 0 0 0 0 0 0 0 0 0 0 0 0 0 0 0 0 0 0 0 0 0 0 0 0 0 0 0 0 0 0 0 0 0 0 0 0 0 0 0 0 0 0 0 0 0 0 0 0 0 0 0 0 0 0 0 0 0 0 0 0 0 0 0 0 0 0 0 0 0 0 0 0 0 0 0 0 0 0 0 0 0 0 0 0 0 0 0 0 0 0 0 0 0 0 0 0 0 0 0 0 0 0 0 0 0 0 0 0 0 0 0 0 0 0 0 0 0 0 0 0 0 0 0 0 0 0 0 0 0 0 0 0 0 0 0 0 0 0 0 0 0 0 0 0 0 0 0 0 0 0 0 0 0 0 0 0 0 0 0 0 0 0 0 0 0 0 0 0 0 0 0 0 0 0 0 0 0 0 0 0 0 0 0 0 0 0 0 0 0 0 0 0 0 0 0 0 0 0 0 0 0 0 0 0 0 0 0 0 0 0 0 0 0 0 0 -0.0427949 -0.0397816 -0.0427364 -0.0442723 -0.0442478 -0.0447205 -0.0443681 -0.0439987 -0.0436724 -0.0434055 -0.0429923 -0.0427668 -0.0427396 -0.0428517 -0.0428607 -0.0427925 -0.0426739 -0.0425531 -0.0424039 -0.0422502 -0.0420958 -0.0419703 -0.0418572 -0.041742 -0.0415937 -0.0414101 -0.0411952 -0.0409597 -0.0407065 -0.0404353 -0.04015 -0.0398613 -0.039585 -0.0393342 -0.039119 -0.0389439 -0.0388106 -0.0387174 -0.038661 -0.0386361 -0.0386355 -0.0386496 -0.038667 -0.0386751 -0.0386639 -0.0386274 -0.0385659 -0.0384832 -0.038384 -0.0382711 -0.0381444 -0.0380007 -0.0378329 -0.0376326 -0.037395 -0.0371254 -0.0368417 -0.0365683 -0.0363262 -0.0361254 -0.0359635 -0.0358321 -0.0357217 -0.0356227 -0.0355222 -0.0353992 -0.0352167 -0.0349153 -0.0344098 -0.0335931 -0.0323435 -0.0305225 -0.0279459 -0.0243136 -0.0191022 -0.0114338 -1.0842e-18 