# vtk DataFile Version 2.0
iteration 1539
ASCII

DATASET STRUCTURED_POINTS
DIMENSIONS 621 64 1
ORIGIN 0 0 0
SPACING 0.00161031 0.00161031 0.00161031

POINT_DATA 39744
SCALARS P float 1
LOOKUP_TABLE default
0 0 0 0 0 0 0 0 0 0 0 0 0 0 0 0 0 0 0 0 0 0 0 0 0 0 0 0 0 0 0 0 0 0 0 0 0 0 0 0 0 0 0 0 0 0 0 0 0 0 0 0 0 0 0 0 0 0 0 0 0 0 0 0 0 0 0 0 0 0 0 0 0 0 0 0 0 0 0 0 0 0 0 0 0 0 0 0 0 0 0 0 0 0 0 0 0 0 0 0 0 0 0 0 0 0 0 0 0 0 0 0 0 0 0 0 0 0 0 0 0 0 0 0 0 0 0 0 0 0 0 0 0 0 0 0 0 0 0 0 0 0 0 0 0 0 0 0 0 0 0 0 0 0 0 0 0 0 0 0 0 0 0 0 0 0 0 0 0 0 0 0 0 0 0 0 0 0 0 0 0 0 0 0 0 0 0 0 0 0 0 0 0 0 0 0 0 0 0 0 0 0 0 0 0 0 0 0 0 0 0 0 0 0 0 0 0 0 0 0 0 0 0 0 0 0 0 0 0 0 0 0 0 0 0 0 0 0 0 0 0 0 0 0 0 0 0 0 0 0 0 0 0 0 0 0 0 0 0 0 0 0 0 0 0 0 0 0 0 0 0 0 0 0 0 0 0 0 0 0 0 0 0 0 0 0 0 0 0 0 0 0 0 0 0 0 0 0 0 0 0 0 0 0 0 0 0 0 0 0 0 0 0 0 0 0 0 0 0 0 0 0 0 0 0 0 0 0 0 0 0 0 0 0 0 0 0 0 0 0 0 0 0 0 0 0 0 0 0 0 0 0 0 0 0 0 0 0 0 0 0 0 0 0 0 0 0 0 0 0 0 0 0 0 0 0 0 0 0 0 0 0 0 0 0 0 0 0 0 0 0 0 0 0 0 0 0 0 0 0 0 0 0 0 0 0 0 0 0 0 0 0 0 0 0 0 0 0 0 0 0 0 0 0 0 0 0 0 0 0 0 0 0 0 0 0 0 0 0 0 0 0 0 0 0 0 0 0 0 0 0 0 0 0 0 0 0 0 0 0 0 0 0 0 0 0 0 0 0 0 0 0 0 0 0 0 0 0 0 0 0 0 0 0 0 0 0 0 0 0 0 0 0 0 0 0 0 0 0 0 0 0 0 0 0 0 0 0 0 0 0 0 0 0 0 0 0 0 0 0 0 0 0 0 0 0 0 0 0 0 0 0 0 0 0 0 0 0 0 0 0 0 0 0 0 0 0 0 0 0 0 0 0 0 0 0 0 0 0 0 0 0 0 0 0 0 0 0 0 0 0 0 0 0 0 0 0 0 0 0 0 0 0 0 0 0 0 0 0 0 0 0 0 0 0 0 0 0 0 0 0 0 0 0 0 0 0 0 0 0 0 0 0 0 0 0 0 0 0 0 0 
0.02 0.02 0.02 0.02 0.02 0.02 0.02 0.02 0.02 0.02 0.02 0.02 0.02 0.02 0.02 0.02 0.02 0.02 0.02 0.02 0.02 0.02 0.02 0.02 0.02 0.02 0.02 0.02 0.02 0.02 0.02 0.02 0.02 0.02 0.02 0.02 0.02 0.02 0.02 0.02 0.02 0.02 0.02 0.02 0.02 0.02 0.02 0.02 0.02 0.02 0.02 0.02 0.02 0.02 0.02 0.02 0.02 0.02 0.02 0.02 0.02 0.02 0.02 0.02 0.02 0.02 0.02 0.02 0.02 0.02 0.02 0.02 0.02 0.02 0.02 0.02 0.02 0.02 0.02 0.02 0.02 0.02 0.02 0.02 0.02 0.02 0.02 0.02 0.02 0.02 0.02 0.02 0.02 0.02 0.02 0.02 0.02 0.02 0.02 0.02 0.02 0.02 0.02 0.02 0.02 0.02 0.0200001 0.0200001 0.0200001 0.0200001 0.0200001 0.0200001 0.0200001 0.0200001 0.0200001 0.0200001 0.0200001 0.0200001 0.0200001 0.0200001 0.0200001 0.0200002 0.0200002 0.0200002 0.0200002 0.0200002 0.0200002 0.0200002 0.0200002 0.0200002 0.0200002 0.0200002 0.0200002 0.0200002 0.0200002 0.0200002 0.0200002 0.0200002 0.0200002 0.0200002 0.0200001 0.0200001 0.0200001 0.02 0.0199999 0.0199999 0.0199998 0.0199997 0.0199996 0.0199995 0.0199993 0.0199992 0.019999 0.0199988 0.0199985 0.0199983 0.019998 0.0199977 0.0199973 0.0199969 0.0199965 0.019996 0.0199955 0.019995 0.0199944 0.0199937 0.019993 0.0199922 0.0199914 0.0199905 0.0199896 0.0199886 0.0199875 0.0199863 0.0199851 0.0199838 0.0199825 0.0199811 0.0199796 0.0199781 0.0199765 0.0199748 0.0199731 0.0199713 0.0199695 0.0199676 0.0199657 0.0199638 0.0199619 0.0199599 0.0199579 0.0199559 0.019954 0.0199521 0.0199502 0.0199483 0.0199465 0.0199448 0.0199431 0.0199415 0.0199401 0.0199387 0.0199375 0.0199364 0.0199355 0.0199347 0.0199341 0.0199337 0.0199335 0.0199335 0.0199338 0.0199342 0.0199349 0.0199357 0.0199364 0.0199373 0.0199386 0.0199403 0.0199425 0.0199449 0.0199477 0.0199508 0.0199543 0.0199581 0.0199623 0.0199668 0.0199718 0.0199771 0.0199828 0.0199889 0.0199955 0.0200025 0.02001 0.0200179 0.0200263 0.0200353 0.0200447 0.0200546 0.0200651 0.0200761 0.0200877 0.0200999 0.0201126 0.020126 0.0201399 0.0201545 0.0201697 0.0201855 0.020202 0.020219 0.0202367 0.020255 0.0202739 0.0202934 0.0203135 0.0203341 0.0203552 0.0203767 0.0203988 0.0204212 0.020444 0.020467 0.0204903 0.0205138 0.0205373 0.0205609 0.0205843 0.0206077 0.0206308 0.0206536 0.0206761 0.0206979 0.0207191 0.0207395 0.0207592 0.0207792 0.0207982 0.0208172 0.020836 0.0208542 0.0208715 0.020888 0.0209037 0.0209184 0.0209322 0.0209451 0.0209569 0.0209678 0.0209776 0.0209863 0.0209941 0.0210007 0.0210063 0.0210108 0.0210142 0.0210166 0.0210179 0.0210181 0.0210173 0.0210154 0.0210124 0.0210084 0.0210033 0.0209971 0.0209899 0.0209816 0.0209722 0.0209618 0.0209503 0.0209376 0.0209239 0.0209091 0.0208931 0.020876 0.0208578 0.0208383 0.0208177 0.0207959 0.0207728 0.0207484 0.0207227 0.0206956 0.0206672 0.0206373 0.020606 0.0205731 0.0205386 0.0205026 0.020465 0.0204257 0.0203847 0.020342 0.0202977 0.0202515 0.0202036 0.020154 0.0201024 0.0200491 0.0199938 0.0199365 0.0198771 0.0198155 0.0197514 0.0196848 0.0196153 0.0195427 0.0194664 0.0193863 0.0193016 0.0192119 0.0191165 0.0190147 0.0189058 0.018789 0.0186634 0.0185279 0.0183817 0.0182236 0.0180522 0.017866 0.0176635 0.0174428 0.0172019 0.016939 0.0166499 0.0163341 0.0159942 0.0156892 0.0155208 0.0153762 0.0173163 0 0 0 0 0 0 0 0 0 0 0 0 0 0 0 0 0 0 0 0 0 0 0 0 0 0 0 0 0 0 0 0 0 0 0 0 0 0 0 0 0 0 0 0 0 0 0 0 0 0 0 0 0 0 0 0 0 0 0 0 0 0 0 0 0 0 0 0 0 0 0 0 0 0 0 0 0 0 0 0 0 0 0 0 0 0 0 0 0 0 0 0 0 0 0 0 0 0 0 0 0 0 0 0 0 0 0 0 0 0 0 0 0 0 0 0 0 0 0 0 0 0 0 0 0 0 0 0 0 0 0 0 0 0 0 0 0 0 0 0 0 0 0 0 0 0 0 0 0 0 0 0 0 0 0 0 0 0 0 0 0 0 0 0 0 0 0 0 0 0 0 0 0 0 0 0 0 0 0 0 0 0 0 0 0 0 0 0 0 0 0 0 0 0 0 0 0 0 0 0 0 0 0 0 0 0 0 0 0 0 0 0 0 0 0 0 0 0 0 0 0 0 0 0 0 0 0 0 0 0 0 0 0 0 0 0 0 0 0 0 0 0 0 0 0 0 0 0 0 0 
0.02 0.02 0.02 0.02 0.02 0.02 0.02 0.02 0.02 0.02 0.02 0.02 0.02 0.02 0.02 0.02 0.02 0.02 0.02 0.02 0.02 0.02 0.02 0.02 0.02 0.02 0.02 0.02 0.02 0.02 0.02 0.02 0.02 0.02 0.02 0.02 0.02 0.02 0.02 0.02 0.02 0.02 0.02 0.02 0.02 0.02 0.02 0.02 0.02 0.02 0.02 0.02 0.02 0.02 0.02 0.02 0.02 0.02 0.02 0.02 0.02 0.02 0.02 0.02 0.02 0.02 0.02 0.02 0.02 0.02 0.02 0.02 0.02 0.02 0.02 0.02 0.02 0.02 0.02 0.02 0.02 0.02 0.02 0.02 0.02 0.02 0.02 0.02 0.02 0.02 0.02 0.02 0.02 0.02 0.02 0.02 0.02 0.02 0.02 0.02 0.02 0.02 0.02 0.02 0.02 0.02 0.0200001 0.0200001 0.0200001 0.0200001 0.0200001 0.0200001 0.0200001 0.0200001 0.0200001 0.0200001 0.0200001 0.0200001 0.0200001 0.0200001 0.0200001 0.0200001 0.0200002 0.0200002 0.0200002 0.0200002 0.0200002 0.0200002 0.0200002 0.0200002 0.0200002 0.0200002 0.0200002 0.0200002 0.0200002 0.0200002 0.0200002 0.0200002 0.0200002 0.0200001 0.0200001 0.0200001 0.02 0.02 0.0199999 0.0199999 0.0199998 0.0199997 0.0199996 0.0199995 0.0199993 0.0199991 0.019999 0.0199988 0.0199985 0.0199983 0.019998 0.0199977 0.0199973 0.0199969 0.0199965 0.019996 0.0199955 0.019995 0.0199944 0.0199937 0.019993 0.0199922 0.0199914 0.0199905 0.0199896 0.0199885 0.0199875 0.0199863 0.0199851 0.0199838 0.0199825 0.0199811 0.0199796 0.0199781 0.0199765 0.0199748 0.0199731 0.0199713 0.0199695 0.0199676 0.0199657 0.0199638 0.0199619 0.0199599 0.0199579 0.019956 0.019954 0.0199521 0.0199502 0.0199483 0.0199465 0.0199448 0.0199431 0.0199415 0.0199401 0.0199387 0.0199375 0.0199364 0.0199355 0.0199347 0.0199341 0.0199337 0.0199335 0.0199335 0.0199337 0.0199342 0.0199349 0.0199357 0.0199366 0.0199377 0.019939 0.0199408 0.0199429 0.0199454 0.0199482 0.0199513 0.0199548 0.0199586 0.0199629 0.0199674 0.0199724 0.0199777 0.0199835 0.0199897 0.0199963 0.0200033 0.0200108 0.0200188 0.0200272 0.0200362 0.0200456 0.0200556 0.0200661 0.0200771 0.0200887 0.0201009 0.0201136 0.0201269 0.0201409 0.0201554 0.0201706 0.0201863 0.0202027 0.0202197 0.0202373 0.0202555 0.0202743 0.0202937 0.0203136 0.020334 0.0203549 0.0203763 0.020398 0.0204202 0.0204427 0.0204654 0.0204883 0.0205114 0.0205345 0.0205576 0.0205806 0.0206035 0.0206261 0.0206484 0.0206704 0.020692 0.0207134 0.0207343 0.0207542 0.0207745 0.0207946 0.020814 0.0208329 0.0208509 0.0208682 0.0208847 0.0209003 0.020915 0.0209288 0.0209416 0.0209535 0.0209643 0.0209741 0.0209828 0.0209906 0.0209972 0.0210028 0.0210073 0.0210108 0.0210132 0.0210145 0.0210147 0.0210139 0.021012 0.0210091 0.0210051 0.021 0.0209938 0.0209867 0.0209784 0.0209691 0.0209587 0.0209472 0.0209346 0.0209209 0.0209061 0.0208902 0.0208731 0.0208549 0.0208355 0.0208149 0.0207931 0.02077 0.0207457 0.02072 0.020693 0.0206646 0.0206348 0.0206034 0.0205706 0.0205362 0.0205003 0.0204627 0.0204234 0.0203825 0.0203399 0.0202956 0.0202495 0.0202017 0.020152 0.0201005 0.0200472 0.0199919 0.0199346 0.0198752 0.0198136 0.0197496 0.0196829 0.0196134 0.0195407 0.0194645 0.0193843 0.0192997 0.01921 0.0191146 0.0190129 0.0189041 0.0187872 0.0186616 0.0185261 0.0183797 0.0182213 0.0180496 0.0178631 0.0176602 0.017439 0.0171979 0.0169354 0.0166478 0.0163343 0.0160121 0.0157508 0.0156075 0.0148906 0.01525 0.0146697 0.0138474 0.0130899 0.0122175 0.0112583 0.0101796 0.00893235 0.00754302 0.00630269 0.00613029 0 0 0 0 0 0 0 0 0 0 0 0 0 0 0 0 0 0 0 0 0 0 0 0 0 0 0 0 0 0 0 0 0 0 0 0 0 0 0 0 0 0 0 0 0 0 0 0 0 0 0 0 0 0 0 0 0 0 0 0 0 0 0 0 0 0 0 0 0 0 0 0 0 0 0 0 0 0 0 0 0 0 0 0 0 0 0 0 0 0 0 0 0 0 0 0 0 0 0 0 0 0 0 0 0 0 0 0 0 0 0 0 0 0 0 0 0 0 0 0 0 0 0 0 0 0 0 0 0 0 0 0 0 0 0 0 0 0 0 0 0 0 0 0 0 0 0 0 0 0 0 0 0 0 0 0 0 0 0 0 0 0 0 0 0 0 0 0 0 0 0 0 0 0 0 0 0 0 0 0 0 0 0 0 0 0 0 0 0 0 0 0 0 0 0 0 0 0 0 0 0 0 0 0 0 0 0 0 0 0 0 0 0 0 0 0 0 0 0 0 0 0 0 0 0 0 0 0 0 0 0 0 0 0 0 0 0 0 0 0 
0.02 0.02 0.02 0.02 0.02 0.02 0.02 0.02 0.02 0.02 0.02 0.02 0.02 0.02 0.02 0.02 0.02 0.02 0.02 0.02 0.02 0.02 0.02 0.02 0.02 0.02 0.02 0.02 0.02 0.02 0.02 0.02 0.02 0.02 0.02 0.02 0.02 0.02 0.02 0.02 0.02 0.02 0.02 0.02 0.02 0.02 0.02 0.02 0.02 0.02 0.02 0.02 0.02 0.02 0.02 0.02 0.02 0.02 0.02 0.02 0.02 0.02 0.02 0.02 0.02 0.02 0.02 0.02 0.02 0.02 0.02 0.02 0.02 0.02 0.02 0.02 0.02 0.02 0.02 0.02 0.02 0.02 0.02 0.02 0.02 0.02 0.02 0.02 0.02 0.02 0.02 0.02 0.02 0.02 0.02 0.02 0.02 0.02 0.02 0.02 0.02 0.02 0.02 0.02 0.02 0.02 0.0200001 0.0200001 0.0200001 0.0200001 0.0200001 0.0200001 0.0200001 0.0200001 0.0200001 0.0200001 0.0200001 0.0200001 0.0200001 0.0200001 0.0200001 0.0200001 0.0200002 0.0200002 0.0200002 0.0200002 0.0200002 0.0200002 0.0200002 0.0200002 0.0200002 0.0200002 0.0200002 0.0200002 0.0200002 0.0200002 0.0200002 0.0200002 0.0200002 0.0200001 0.0200001 0.0200001 0.02 0.02 0.0199999 0.0199998 0.0199998 0.0199997 0.0199996 0.0199994 0.0199993 0.0199991 0.0199989 0.0199987 0.0199985 0.0199982 0.0199979 0.0199976 0.0199973 0.0199969 0.0199965 0.019996 0.0199955 0.0199949 0.0199943 0.0199936 0.0199929 0.0199922 0.0199913 0.0199904 0.0199895 0.0199885 0.0199874 0.0199863 0.019985 0.0199838 0.0199824 0.019981 0.0199795 0.019978 0.0199764 0.0199747 0.019973 0.0199712 0.0199694 0.0199676 0.0199657 0.0199637 0.0199618 0.0199598 0.0199578 0.0199559 0.0199539 0.019952 0.0199501 0.0199482 0.0199464 0.0199447 0.019943 0.0199415 0.01994 0.0199387 0.0199374 0.0199364 0.0199354 0.0199347 0.0199341 0.0199337 0.0199335 0.0199335 0.0199338 0.0199342 0.0199349 0.0199358 0.0199369 0.0199381 0.0199395 0.0199413 0.0199434 0.0199459 0.0199488 0.0199519 0.0199555 0.0199594 0.0199636 0.0199683 0.0199733 0.0199787 0.0199845 0.0199908 0.0199975 0.0200046 0.0200122 0.0200202 0.0200287 0.0200377 0.0200472 0.0200573 0.0200678 0.0200789 0.0200906 0.0201028 0.0201156 0.0201289 0.0201429 0.0201574 0.0201726 0.0201883 0.0202047 0.0202216 0.0202392 0.0202573 0.0202759 0.0202952 0.0203149 0.0203351 0.0203558 0.0203769 0.0203983 0.0204201 0.0204422 0.0204645 0.020487 0.0205095 0.0205322 0.0205548 0.0205773 0.0205997 0.020622 0.0206441 0.020666 0.0206876 0.0207087 0.0207299 0.0207508 0.0207714 0.0207913 0.0208107 0.0208293 0.0208472 0.0208644 0.0208807 0.0208962 0.0209108 0.0209244 0.0209371 0.0209489 0.0209596 0.0209693 0.0209779 0.0209855 0.0209921 0.0209975 0.021002 0.0210053 0.0210076 0.0210088 0.0210089 0.021008 0.021006 0.0210029 0.0209988 0.0209936 0.0209874 0.0209801 0.0209717 0.0209623 0.0209518 0.0209402 0.0209275 0.0209138 0.0208989 0.0208829 0.0208658 0.0208475 0.020828 0.0208074 0.0207855 0.0207624 0.0207381 0.0207124 0.0206854 0.020657 0.0206272 0.0205959 0.0205631 0.0205288 0.0204929 0.0204554 0.0204163 0.0203755 0.020333 0.0202889 0.0202429 0.0201952 0.0201458 0.0200944 0.0200413 0.0199861 0.019929 0.0198698 0.0198083 0.0197444 0.0196779 0.0196085 0.0195359 0.0194598 0.0193797 0.0192951 0.0192055 0.0191101 0.0190084 0.0188994 0.0187825 0.0186565 0.0185206 0.0183737 0.0182146 0.018042 0.0178543 0.01765 0.0174275 0.0171852 0.016923 0.0166412 0.016342 0.0160508 0.0158165 0.0156992 0.0155184 0.0150859 0.0144559 0.0137667 0.0130142 0.0121273 0.0111526 0.0100557 0.00885736 0.00751873 0.00623041 0.00516484 0.00361579 0.00189339 0.000413295 0 0 0 0 0 0 0 0 0 0 0 0 0 0 0 0 0 0 0 0 0 0 0 0 0 0 0 0 0 0 0 0 0 0 0 0 0 0 0 0 0 0 0 0 0 0 0 0 0 0 0 0 0 0 0 0 0 0 0 0 0 0 0 0 0 0 0 0 0 0 0 0 0 0 0 0 0 0 0 0 0 0 0 0 0 0 0 0 0 0 0 0 0 0 0 0 0 0 0 0 0 0 0 0 0 0 0 0 0 0 0 0 0 0 0 0 0 0 0 0 0 0 0 0 0 0 0 0 0 0 0 0 0 0 0 0 0 0 0 0 0 0 0 0 0 0 0 0 0 0 0 0 0 0 0 0 0 0 0 0 0 0 0 0 0 0 0 0 0 0 0 0 0 0 0 0 0 0 0 0 0 0 0 0 0 0 0 0 0 0 0 0 0 0 0 0 0 0 0 0 0 0 0 0 0 0 0 0 0 0 0 0 0 0 0 0 0 0 0 0 0 0 0 0 0 0 0 0 0 0 0 0 0 0 0 0 -2.1684e-19 
0.02 0.02 0.02 0.02 0.02 0.02 0.02 0.02 0.02 0.02 0.02 0.02 0.02 0.02 0.02 0.02 0.02 0.02 0.02 0.02 0.02 0.02 0.02 0.02 0.02 0.02 0.02 0.02 0.02 0.02 0.02 0.02 0.02 0.02 0.02 0.02 0.02 0.02 0.02 0.02 0.02 0.02 0.02 0.02 0.02 0.02 0.02 0.02 0.02 0.02 0.02 0.02 0.02 0.02 0.02 0.02 0.02 0.02 0.02 0.02 0.02 0.02 0.02 0.02 0.02 0.02 0.02 0.02 0.02 0.02 0.02 0.02 0.02 0.02 0.02 0.02 0.02 0.02 0.02 0.02 0.02 0.02 0.02 0.02 0.02 0.02 0.02 0.02 0.02 0.02 0.02 0.02 0.02 0.02 0.02 0.02 0.02 0.02 0.02 0.02 0.02 0.02 0.02 0.02 0.02 0.02 0.02 0.0200001 0.0200001 0.0200001 0.0200001 0.0200001 0.0200001 0.0200001 0.0200001 0.0200001 0.0200001 0.0200001 0.0200001 0.0200001 0.0200001 0.0200001 0.0200001 0.0200002 0.0200002 0.0200002 0.0200002 0.0200002 0.0200002 0.0200002 0.0200002 0.0200002 0.0200002 0.0200002 0.0200002 0.0200002 0.0200002 0.0200002 0.0200001 0.0200001 0.0200001 0.02 0.02 0.0199999 0.0199999 0.0199998 0.0199997 0.0199996 0.0199995 0.0199994 0.0199992 0.0199991 0.0199989 0.0199987 0.0199984 0.0199982 0.0199979 0.0199976 0.0199972 0.0199968 0.0199964 0.0199959 0.0199954 0.0199948 0.0199942 0.0199936 0.0199928 0.0199921 0.0199912 0.0199903 0.0199894 0.0199884 0.0199873 0.0199861 0.0199849 0.0199837 0.0199823 0.0199809 0.0199794 0.0199779 0.0199763 0.0199746 0.0199729 0.0199711 0.0199693 0.0199674 0.0199655 0.0199636 0.0199617 0.0199597 0.0199577 0.0199558 0.0199538 0.0199519 0.01995 0.0199481 0.0199464 0.0199446 0.019943 0.0199414 0.01994 0.0199386 0.0199374 0.0199364 0.0199355 0.0199347 0.0199342 0.0199338 0.0199336 0.0199337 0.019934 0.0199345 0.0199352 0.0199362 0.0199373 0.0199386 0.0199402 0.0199421 0.0199443 0.0199468 0.0199497 0.0199529 0.0199565 0.0199605 0.0199648 0.0199696 0.0199747 0.0199802 0.0199861 0.0199924 0.0199992 0.0200064 0.0200141 0.0200222 0.0200309 0.02004 0.0200495 0.0200597 0.0200703 0.0200815 0.0200932 0.0201054 0.0201183 0.0201317 0.0201456 0.0201602 0.0201753 0.020191 0.0202073 0.0202241 0.0202415 0.0202595 0.0202779 0.0202969 0.0203164 0.0203363 0.0203566 0.0203773 0.0203984 0.0204197 0.0204413 0.0204631 0.0204851 0.0205072 0.0205293 0.0205515 0.0205736 0.0205958 0.0206179 0.0206398 0.0206616 0.0206833 0.0207048 0.020726 0.0207468 0.020767 0.0207867 0.0208058 0.0208242 0.0208419 0.0208588 0.020875 0.0208902 0.0209046 0.0209181 0.0209306 0.0209421 0.0209526 0.0209621 0.0209706 0.020978 0.0209844 0.0209897 0.0209939 0.0209971 0.0209992 0.0210002 0.0210001 0.020999 0.0209969 0.0209936 0.0209893 0.020984 0.0209776 0.0209701 0.0209616 0.020952 0.0209414 0.0209296 0.0209168 0.0209029 0.0208879 0.0208718 0.0208546 0.0208362 0.0208167 0.0207959 0.020774 0.0207509 0.0207265 0.0207008 0.0206738 0.0206454 0.0206156 0.0205844 0.0205517 0.0205175 0.0204818 0.0204444 0.0204055 0.0203649 0.0203226 0.0202786 0.020233 0.0201855 0.0201363 0.0200852 0.0200323 0.0199775 0.0199206 0.0198616 0.0198004 0.0197368 0.0196705 0.0196013 0.019529 0.019453 0.0193731 0.0192887 0.0191991 0.0191038 0.0190021 0.018893 0.0187758 0.0186495 0.018513 0.0183653 0.0182051 0.0180311 0.0178418 0.0176358 0.0174118 0.0171693 0.0169102 0.0166388 0.0163604 0.01609 0.0158646 0.0156768 0.0154164 0.014969 0.0143751 0.0136783 0.0129159 0.0120205 0.0110391 0.00994527 0.00878164 0.00753757 0.00618616 0.00489787 0.00337872 0.00176166 0.000112362 -0.00176542 -0.00402377 -0.00614089 0 0 0 0 0 0 0 0 0 0 0 0 0 0 0 0 0 0 0 0 0 0 0 0 0 0 0 0 0 0 0 0 0 0 0 0 0 0 0 0 0 0 0 0 0 0 0 0 0 0 0 0 0 0 0 0 0 0 0 0 0 0 0 0 0 0 0 0 0 0 0 0 0 0 0 0 0 0 0 0 0 0 0 0 0 0 0 0 0 0 0 0 0 0 0 0 0 0 0 0 0 0 0 0 0 0 0 0 0 0 0 0 0 0 0 0 0 0 0 0 0 0 0 0 0 0 0 0 0 0 0 0 0 0 0 0 0 0 0 0 0 0 0 0 0 0 0 0 0 0 0 0 0 0 0 0 0 0 0 0 0 0 0 0 0 0 0 0 0 0 0 0 0 0 0 0 0 0 0 0 0 0 0 0 0 0 0 0 0 0 0 0 0 0 0 0 0 0 0 0 0 0 0 0 0 0 0 0 0 0 0 0 0 0 0 0 0 0 0 0 0 0 0 0 0 0 0 0 0 0 0 0 0 -1.0842e-19 
0.02 0.02 0.02 0.02 0.02 0.02 0.02 0.02 0.02 0.02 0.02 0.02 0.02 0.02 0.02 0.02 0.02 0.02 0.02 0.02 0.02 0.02 0.02 0.02 0.02 0.02 0.02 0.02 0.02 0.02 0.02 0.02 0.02 0.02 0.02 0.02 0.02 0.02 0.02 0.02 0.02 0.02 0.02 0.02 0.02 0.02 0.02 0.02 0.02 0.02 0.02 0.02 0.02 0.02 0.02 0.02 0.02 0.02 0.02 0.02 0.02 0.02 0.02 0.02 0.02 0.02 0.02 0.02 0.02 0.02 0.02 0.02 0.02 0.02 0.02 0.02 0.02 0.02 0.02 0.02 0.02 0.02 0.02 0.02 0.02 0.02 0.02 0.02 0.02 0.02 0.02 0.02 0.02 0.02 0.02 0.02 0.02 0.02 0.02 0.02 0.02 0.02 0.02 0.02 0.02 0.02 0.02 0.0200001 0.0200001 0.0200001 0.0200001 0.0200001 0.0200001 0.0200001 0.0200001 0.0200001 0.0200001 0.0200001 0.0200001 0.0200001 0.0200001 0.0200001 0.0200001 0.0200001 0.0200002 0.0200002 0.0200002 0.0200002 0.0200002 0.0200002 0.0200002 0.0200002 0.0200002 0.0200002 0.0200002 0.0200002 0.0200001 0.0200001 0.0200001 0.0200001 0.02 0.02 0.02 0.0199999 0.0199998 0.0199998 0.0199997 0.0199996 0.0199995 0.0199993 0.0199992 0.019999 0.0199988 0.0199986 0.0199984 0.0199981 0.0199978 0.0199975 0.0199971 0.0199967 0.0199963 0.0199958 0.0199953 0.0199947 0.0199941 0.0199934 0.0199927 0.0199919 0.0199911 0.0199902 0.0199893 0.0199882 0.0199872 0.019986 0.0199848 0.0199835 0.0199822 0.0199808 0.0199793 0.0199777 0.0199761 0.0199745 0.0199728 0.019971 0.0199692 0.0199673 0.0199654 0.0199635 0.0199616 0.0199596 0.0199576 0.0199557 0.0199537 0.0199518 0.0199499 0.0199481 0.0199463 0.0199446 0.019943 0.0199414 0.01994 0.0199387 0.0199375 0.0199365 0.0199356 0.0199349 0.0199344 0.0199341 0.0199339 0.019934 0.0199343 0.0199349 0.0199357 0.0199367 0.019938 0.0199394 0.0199411 0.0199431 0.0199454 0.019948 0.019951 0.0199543 0.019958 0.0199621 0.0199665 0.0199713 0.0199766 0.0199822 0.0199882 0.0199947 0.0200016 0.0200089 0.0200167 0.0200249 0.0200336 0.0200428 0.0200525 0.0200627 0.0200734 0.0200847 0.0200964 0.0201087 0.0201216 0.020135 0.0201489 0.0201634 0.0201785 0.0201941 0.0202102 0.0202269 0.0202441 0.0202618 0.02028 0.0202986 0.0203178 0.0203373 0.0203572 0.0203774 0.020398 0.0204189 0.02044 0.0204613 0.0204828 0.0205044 0.0205262 0.0205481 0.02057 0.0205919 0.0206138 0.0206356 0.0206573 0.0206788 0.0207 0.0207208 0.0207412 0.0207611 0.0207805 0.0207992 0.0208173 0.0208347 0.0208513 0.0208671 0.0208821 0.0208962 0.0209094 0.0209216 0.0209329 0.0209431 0.0209524 0.0209606 0.0209678 0.0209739 0.0209789 0.0209829 0.0209859 0.0209877 0.0209885 0.0209882 0.0209869 0.0209845 0.020981 0.0209765 0.0209709 0.0209643 0.0209567 0.020948 0.0209382 0.0209273 0.0209154 0.0209025 0.0208884 0.0208733 0.020857 0.0208397 0.0208212 0.0208016 0.0207808 0.0207588 0.0207356 0.0207112 0.0206855 0.0206585 0.0206302 0.0206005 0.0205694 0.0205368 0.0205028 0.0204672 0.0204301 0.0203913 0.020351 0.020309 0.0202654 0.02022 0.0201729 0.020124 0.0200733 0.0200208 0.0199663 0.0199098 0.0198512 0.0197903 0.019727 0.019661 0.0195922 0.0195201 0.0194445 0.0193648 0.0192806 0.0191912 0.0190961 0.0189943 0.0188851 0.0187677 0.0186409 0.0185037 0.018355 0.0181935 0.018018 0.0178269 0.0176193 0.017395 0.0171546 0.0169016 0.0166431 0.0163847 0.01613 0.0158854 0.0156268 0.0153039 0.0148421 0.0142591 0.0135695 0.0127914 0.0118986 0.0109159 0.00983451 0.00868566 0.0074738 0.00616804 0.00472616 0.00318153 0.00156958 -0.000112915 -0.00193702 -0.00366959 -0.00617391 -0.00904003 -0.0122132 0 0 0 0 0 0 0 0 0 0 0 0 0 0 0 0 0 0 0 0 0 0 0 0 0 0 0 0 0 0 0 0 0 0 0 0 0 0 0 0 0 0 0 0 0 0 0 0 0 0 0 0 0 0 0 0 0 0 0 0 0 0 0 0 0 0 0 0 0 0 0 0 0 0 0 0 0 0 0 0 0 0 0 0 0 0 0 0 0 0 0 0 0 0 0 0 0 0 0 0 0 0 0 0 0 0 0 0 0 0 0 0 0 0 0 0 0 0 0 0 0 0 0 0 0 0 0 0 0 0 0 0 0 0 0 0 0 0 0 0 0 0 0 0 0 0 0 0 0 0 0 0 0 0 0 0 0 0 0 0 0 0 0 0 0 0 0 0 0 0 0 0 0 0 0 0 0 0 0 0 0 0 0 0 0 0 0 0 0 0 0 0 0 0 0 0 0 0 0 0 0 0 0 0 0 0 0 0 0 0 0 0 0 0 0 0 0 0 0 0 0 0 0 0 0 0 0 0 0 0 -0.00460421 -2.1684e-19 
0.02 0.02 0.02 0.02 0.02 0.02 0.02 0.02 0.02 0.02 0.02 0.02 0.02 0.02 0.02 0.02 0.02 0.02 0.02 0.02 0.02 0.02 0.02 0.02 0.02 0.02 0.02 0.02 0.02 0.02 0.02 0.02 0.02 0.02 0.02 0.02 0.02 0.02 0.02 0.02 0.02 0.02 0.02 0.02 0.02 0.02 0.02 0.02 0.02 0.02 0.02 0.02 0.02 0.02 0.02 0.02 0.02 0.02 0.02 0.02 0.02 0.02 0.02 0.02 0.02 0.02 0.02 0.02 0.02 0.02 0.02 0.02 0.02 0.02 0.02 0.02 0.02 0.02 0.02 0.02 0.02 0.02 0.02 0.02 0.02 0.02 0.02 0.02 0.02 0.02 0.02 0.02 0.02 0.02 0.02 0.02 0.02 0.02 0.02 0.02 0.02 0.02 0.02 0.02 0.02 0.02 0.02 0.02 0.0200001 0.0200001 0.0200001 0.0200001 0.0200001 0.0200001 0.0200001 0.0200001 0.0200001 0.0200001 0.0200001 0.0200001 0.0200001 0.0200001 0.0200001 0.0200001 0.0200001 0.0200001 0.0200001 0.0200002 0.0200002 0.0200002 0.0200002 0.0200002 0.0200001 0.0200001 0.0200001 0.0200001 0.0200001 0.0200001 0.0200001 0.02 0.02 0.02 0.0199999 0.0199998 0.0199998 0.0199997 0.0199996 0.0199995 0.0199994 0.0199992 0.0199991 0.0199989 0.0199987 0.0199985 0.0199983 0.019998 0.0199977 0.0199974 0.019997 0.0199966 0.0199962 0.0199957 0.0199952 0.0199946 0.019994 0.0199933 0.0199926 0.0199918 0.019991 0.0199901 0.0199891 0.0199881 0.019987 0.0199858 0.0199846 0.0199833 0.019982 0.0199806 0.0199791 0.0199776 0.019976 0.0199743 0.0199726 0.0199708 0.019969 0.0199672 0.0199653 0.0199634 0.0199615 0.0199595 0.0199576 0.0199556 0.0199537 0.0199518 0.0199499 0.0199481 0.0199463 0.0199447 0.019943 0.0199415 0.0199401 0.0199389 0.0199377 0.0199367 0.0199359 0.0199352 0.0199347 0.0199345 0.0199344 0.0199345 0.0199349 0.0199355 0.0199364 0.0199375 0.0199389 0.0199405 0.0199423 0.0199444 0.0199468 0.0199496 0.0199527 0.0199561 0.0199599 0.0199641 0.0199686 0.0199736 0.0199789 0.0199847 0.0199908 0.0199974 0.0200044 0.0200119 0.0200198 0.0200281 0.020037 0.0200463 0.020056 0.0200663 0.0200771 0.0200884 0.0201002 0.0201125 0.0201253 0.0201387 0.0201526 0.020167 0.0201819 0.0201973 0.0202133 0.0202297 0.0202467 0.0202641 0.0202819 0.0203002 0.0203189 0.020338 0.0203575 0.0203773 0.0203974 0.0204178 0.0204385 0.0204594 0.0204805 0.0205017 0.0205232 0.0205447 0.0205663 0.0205879 0.0206095 0.0206309 0.0206522 0.0206732 0.0206939 0.0207142 0.0207342 0.0207536 0.0207725 0.0207908 0.0208084 0.0208254 0.0208416 0.020857 0.0208716 0.0208853 0.0208982 0.02091 0.020921 0.0209309 0.0209398 0.0209477 0.0209546 0.0209604 0.0209651 0.0209688 0.0209715 0.020973 0.0209735 0.020973 0.0209714 0.0209687 0.020965 0.0209602 0.0209544 0.0209475 0.0209396 0.0209307 0.0209207 0.0209097 0.0208976 0.0208844 0.0208702 0.0208549 0.0208386 0.0208211 0.0208025 0.0207828 0.0207619 0.0207399 0.0207167 0.0206923 0.0206666 0.0206397 0.0206115 0.0205819 0.0205509 0.0205185 0.0204847 0.0204493 0.0204125 0.0203741 0.0203341 0.0202924 0.0202492 0.0202042 0.0201575 0.0201091 0.0200588 0.0200067 0.0199527 0.0198967 0.0198385 0.0197781 0.0197152 0.0196497 0.0195813 0.0195096 0.0194343 0.0193549 0.019271 0.0191818 0.0190868 0.0189851 0.0188758 0.018758 0.0186307 0.0184927 0.018343 0.0181801 0.0180031 0.0178108 0.0176027 0.0173796 0.0171439 0.0168994 0.0166528 0.0164082 0.0161592 0.0158892 0.0155898 0.0152052 0.0147208 0.0141319 0.0134407 0.0126545 0.0117677 0.0107886 0.00971924 0.00857322 0.00734904 0.00602341 0.00457435 0.00301811 0.00137507 -0.000351506 -0.00219186 -0.00415268 -0.00628713 -0.00827818 -0.0117786 -0.0157596 0 0 0 0 0 0 0 0 0 0 0 0 0 0 0 0 0 0 0 0 0 0 0 0 0 0 0 0 0 0 0 0 0 0 0 0 0 0 0 0 0 0 0 0 0 0 0 0 0 0 0 0 0 0 0 0 0 0 0 0 0 0 0 0 0 0 0 0 0 0 0 0 0 0 0 0 0 0 0 0 0 0 0 0 0 0 0 0 0 0 0 0 0 0 0 0 0 0 0 0 0 0 0 0 0 0 0 0 0 0 0 0 0 0 0 0 0 0 0 0 0 0 0 0 0 0 0 0 0 0 0 0 0 0 0 0 0 0 0 0 0 0 0 0 0 0 0 0 0 0 0 0 0 0 0 0 0 0 0 0 0 0 0 0 0 0 0 0 0 0 0 0 0 0 0 0 0 0 0 0 0 0 0 0 0 0 0 0 0 0 0 0 0 0 0 0 0 0 0 0 0 0 0 0 0 0 0 0 0 0 0 0 0 0 0 0 0 0 0 0 0 0 0 0 0 0 0 0 -0.0164574 -0.00835676 -8.67362e-19 
0.02 0.02 0.02 0.02 0.02 0.02 0.02 0.02 0.02 0.02 0.02 0.02 0.02 0.02 0.02 0.02 0.02 0.02 0.02 0.02 0.02 0.02 0.02 0.02 0.02 0.02 0.02 0.02 0.02 0.02 0.02 0.02 0.02 0.02 0.02 0.02 0.02 0.02 0.02 0.02 0.02 0.02 0.02 0.02 0.02 0.02 0.02 0.02 0.02 0.02 0.02 0.02 0.02 0.02 0.02 0.02 0.02 0.02 0.02 0.02 0.02 0.02 0.02 0.02 0.02 0.02 0.02 0.02 0.02 0.02 0.02 0.02 0.02 0.02 0.02 0.02 0.02 0.02 0.02 0.02 0.02 0.02 0.02 0.02 0.02 0.02 0.02 0.02 0.02 0.02 0.02 0.02 0.02 0.02 0.02 0.02 0.02 0.02 0.02 0.02 0.02 0.02 0.02 0.02 0.02 0.02 0.02 0.02 0.02 0.0200001 0.0200001 0.0200001 0.0200001 0.0200001 0.0200001 0.0200001 0.0200001 0.0200001 0.0200001 0.0200001 0.0200001 0.0200001 0.0200001 0.0200001 0.0200001 0.0200001 0.0200001 0.0200001 0.0200001 0.0200001 0.0200001 0.0200001 0.0200001 0.0200001 0.0200001 0.0200001 0.0200001 0.02 0.02 0.02 0.0199999 0.0199999 0.0199998 0.0199998 0.0199997 0.0199996 0.0199995 0.0199994 0.0199993 0.0199992 0.019999 0.0199988 0.0199986 0.0199984 0.0199981 0.0199979 0.0199976 0.0199972 0.0199969 0.0199965 0.019996 0.0199955 0.019995 0.0199944 0.0199938 0.0199931 0.0199924 0.0199916 0.0199908 0.0199899 0.0199889 0.0199879 0.0199868 0.0199857 0.0199844 0.0199832 0.0199818 0.0199804 0.0199789 0.0199774 0.0199758 0.0199741 0.0199724 0.0199707 0.0199689 0.019967 0.0199652 0.0199633 0.0199614 0.0199594 0.0199575 0.0199556 0.0199537 0.0199518 0.0199499 0.0199481 0.0199464 0.0199448 0.0199432 0.0199417 0.0199403 0.0199391 0.019938 0.0199371 0.0199363 0.0199357 0.0199352 0.019935 0.019935 0.0199352 0.0199357 0.0199363 0.0199373 0.0199385 0.01994 0.0199417 0.0199437 0.019946 0.0199485 0.0199514 0.0199546 0.0199582 0.0199622 0.0199665 0.0199711 0.0199762 0.0199817 0.0199876 0.0199939 0.0200006 0.0200077 0.0200153 0.0200233 0.0200318 0.0200407 0.0200501 0.02006 0.0200703 0.0200812 0.0200925 0.0201043 0.0201166 0.0201294 0.0201427 0.0201564 0.0201707 0.0201855 0.0202007 0.0202165 0.0202327 0.0202493 0.0202664 0.0202839 0.0203018 0.0203201 0.0203388 0.0203578 0.0203772 0.0203969 0.0204169 0.0204371 0.0204576 0.0204783 0.0204992 0.0205202 0.0205412 0.0205624 0.0205834 0.0206045 0.0206253 0.020646 0.0206664 0.0206865 0.0207063 0.0207256 0.0207445 0.0207628 0.0207805 0.0207977 0.0208141 0.0208298 0.0208447 0.0208588 0.0208721 0.0208844 0.0208959 0.0209064 0.0209159 0.0209244 0.0209319 0.0209383 0.0209438 0.0209482 0.0209515 0.0209538 0.020955 0.0209552 0.0209543 0.0209523 0.0209494 0.0209453 0.0209403 0.0209342 0.0209271 0.0209189 0.0209097 0.0208995 0.0208883 0.020876 0.0208627 0.0208483 0.0208328 0.0208163 0.0207988 0.0207801 0.0207603 0.0207394 0.0207174 0.0206942 0.0206698 0.0206442 0.0206174 0.0205893 0.0205599 0.0205291 0.0204969 0.0204634 0.0204283 0.0203918 0.0203538 0.0203142 0.020273 0.0202302 0.0201857 0.0201395 0.0200916 0.0200419 0.0199904 0.0199369 0.0198814 0.0198238 0.0197639 0.0197015 0.0196365 0.0195685 0.0194973 0.0194224 0.0193435 0.0192598 0.0191709 0.0190761 0.0189744 0.018865 0.0187469 0.018619 0.0184803 0.0183295 0.0181655 0.0179875 0.0177948 0.0175878 0.0173679 0.0171384 0.0169027 0.0166636 0.016421 0.0161659 0.0158784 0.0155306 0.0151132 0.0146054 0.0140029 0.0133058 0.0125164 0.0116343 0.0106613 0.00960031 0.0084535 0.00721649 0.00587444 0.00441622 0.00284481 0.00117689 -0.000590741 -0.00246634 -0.00446767 -0.00661323 -0.0089329 -0.0116172 -0.014807 -0.0188964 -0.0254586 0 0 0 0 0 0 0 0 0 0 0 0 0 0 0 0 0 0 0 0 0 0 0 0 0 0 0 0 0 0 0 0 0 0 0 0 0 0 0 0 0 0 0 0 0 0 0 0 0 0 0 0 0 0 0 0 0 0 0 0 0 0 0 0 0 0 0 0 0 0 0 0 0 0 0 0 0 0 0 0 0 0 0 0 0 0 0 0 0 0 0 0 0 0 0 0 0 0 0 0 0 0 0 0 0 0 0 0 0 0 0 0 0 0 0 0 0 0 0 0 0 0 0 0 0 0 0 0 0 0 0 0 0 0 0 0 0 0 0 0 0 0 0 0 0 0 0 0 0 0 0 0 0 0 0 0 0 0 0 0 0 0 0 0 0 0 0 0 0 0 0 0 0 0 0 0 0 0 0 0 0 0 0 0 0 0 0 0 0 0 0 0 0 0 0 0 0 0 0 0 0 0 0 0 0 0 0 0 0 0 0 0 0 0 0 0 0 0 0 0 0 0 0 0 -0.0337145 -0.0284774 -0.0205455 -0.0112269 2.60209e-18 