# vtk DataFile Version 2.0
iteration 1269
ASCII

DATASET STRUCTURED_POINTS
DIMENSIONS 621 64 1
ORIGIN 0 0 0
SPACING 0.00161031 0.00161031 0.00161031

POINT_DATA 39744
SCALARS P float 1
LOOKUP_TABLE default
0 0 0 0 0 0 0 0 0 0 0 0 0 0 0 0 0 0 0 0 0 0 0 0 0 0 0 0 0 0 0 0 0 0 0 0 0 0 0 0 0 0 0 0 0 0 0 0 0 0 0 0 0 0 0 0 0 0 0 0 0 0 0 0 0 0 0 0 0 0 0 0 0 0 0 0 0 0 0 0 0 0 0 0 0 0 0 0 0 0 0 0 0 0 0 0 0 0 0 0 0 0 0 0 0 0 0 0 0 0 0 0 0 0 0 0 0 0 0 0 0 0 0 0 0 0 0 0 0 0 0 0 0 0 0 0 0 0 0 0 0 0 0 0 0 0 0 0 0 0 0 0 0 0 0 0 0 0 0 0 0 0 0 0 0 0 0 0 0 0 0 0 0 0 0 0 0 0 0 0 0 0 0 0 0 0 0 0 0 0 0 0 0 0 0 0 0 0 0 0 0 0 0 0 0 0 0 0 0 0 0 0 0 0 0 0 0 0 0 0 0 0 0 0 0 0 0 0 0 0 0 0 0 0 0 0 0 0 0 0 0 0 0 0 0 0 0 0 0 0 0 0 0 0 0 0 0 0 0 0 0 0 0 0 0 0 0 0 0 0 0 0 0 0 0 0 0 0 0 0 0 0 0 0 0 0 0 0 0 0 0 0 0 0 0 0 0 0 0 0 0 0 0 0 0 0 0 0 0 0 0 0 0 0 0 0 0 0 0 0 0 0 0 0 0 0 0 0 0 0 0 0 0 0 0 0 0 0 0 0 0 0 0 0 0 0 0 0 0 0 0 0 0 0 0 0 0 0 0 0 0 0 0 0 0 0 0 0 0 0 0 0 0 0 0 0 0 0 0 0 0 0 0 0 0 0 0 0 0 0 0 0 0 0 0 0 0 0 0 0 0 0 0 0 0 0 0 0 0 0 0 0 0 0 0 0 0 0 0 0 0 0 0 0 0 0 0 0 0 0 0 0 0 0 0 0 0 0 0 0 0 0 0 0 0 0 0 0 0 0 0 0 0 0 0 0 0 0 0 0 0 0 0 0 0 0 0 0 0 0 0 0 0 0 0 0 0 0 0 0 0 0 0 0 0 0 0 0 0 0 0 0 0 0 0 0 0 0 0 0 0 0 0 0 0 0 0 0 0 0 0 0 0 0 0 0 0 0 0 0 0 0 0 0 0 0 0 0 0 0 0 0 0 0 0 0 0 0 0 0 0 0 0 0 0 0 0 0 0 0 0 0 0 0 0 0 0 0 0 0 0 0 0 0 0 0 0 0 0 0 0 0 0 0 0 0 0 0 0 0 0 0 0 0 0 0 0 0 0 0 0 0 0 0 0 0 0 0 0 0 0 0 0 0 0 0 0 0 0 0 0 0 0 0 0 0 0 0 0 0 0 
0.02 0.02 0.02 0.02 0.02 0.02 0.02 0.02 0.02 0.02 0.02 0.02 0.02 0.02 0.02 0.02 0.02 0.02 0.02 0.02 0.02 0.02 0.02 0.02 0.02 0.02 0.02 0.02 0.02 0.02 0.02 0.02 0.02 0.02 0.02 0.02 0.02 0.02 0.02 0.02 0.02 0.02 0.02 0.02 0.02 0.02 0.02 0.02 0.02 0.02 0.02 0.02 0.02 0.02 0.02 0.02 0.02 0.02 0.02 0.02 0.02 0.02 0.02 0.02 0.02 0.02 0.02 0.02 0.02 0.02 0.02 0.0199999 0.0199999 0.0199999 0.0199999 0.0199999 0.0199999 0.0199999 0.0199999 0.0199999 0.0199999 0.0199998 0.0199998 0.0199998 0.0199998 0.0199997 0.0199997 0.0199997 0.0199996 0.0199996 0.0199995 0.0199995 0.0199994 0.0199994 0.0199993 0.0199992 0.0199991 0.019999 0.0199989 0.0199988 0.0199987 0.0199986 0.0199984 0.0199983 0.0199981 0.0199979 0.0199977 0.0199975 0.0199973 0.019997 0.0199968 0.0199965 0.0199961 0.0199958 0.0199954 0.019995 0.0199946 0.0199941 0.0199936 0.0199931 0.0199925 0.0199918 0.0199912 0.0199904 0.0199896 0.0199888 0.0199879 0.0199869 0.0199858 0.0199847 0.0199834 0.0199821 0.0199806 0.0199791 0.0199774 0.0199756 0.0199736 0.0199715 0.0199692 0.0199667 0.019964 0.0199611 0.019958 0.0199546 0.019951 0.0199471 0.0199429 0.0199384 0.0199335 0.0199283 0.0199228 0.0199168 0.0199104 0.0199036 0.0198964 0.0198887 0.0198806 0.019872 0.0198629 0.0198533 0.0198432 0.0198326 0.0198215 0.01981 0.019798 0.0197855 0.0197726 0.0197592 0.0197455 0.0197314 0.019717 0.0197022 0.0196872 0.019672 0.0196565 0.0196405 0.0196232 0.0196062 0.0195896 0.0195732 0.019557 0.019541 0.0195253 0.0195097 0.0194945 0.0194795 0.019465 0.0194508 0.0194371 0.0194238 0.019411 0.0193987 0.0193869 0.0193756 0.0193648 0.0193546 0.0193448 0.0193355 0.0193268 0.0193184 0.0193104 0.0193029 0.0192956 0.0192886 0.0192819 0.0192754 0.019269 0.0192627 0.0192565 0.0192502 0.0192439 0.0192374 0.0192308 0.019224 0.019217 0.0192096 0.0192019 0.0191938 0.0191854 0.0191765 0.0191671 0.0191573 0.0191469 0.0191359 0.0191244 0.0191122 0.0190994 0.0190858 0.0190714 0.0190562 0.01904 0.0190229 0.0190046 0.018985 0.0189639 0.018943 0.0189216 0.018902 0.0188826 0.0188627 0.0188424 0.0188216 0.0188003 0.0187785 0.0187562 0.0187334 0.0187101 0.0186862 0.0186617 0.0186366 0.0186108 0.0185843 0.0185572 0.0185293 0.0185007 0.0184714 0.0184413 0.0184104 0.0183787 0.0183462 0.0183128 0.0182784 0.0182431 0.0182067 0.018169 0.01813 0.0180893 0.0180466 0.0180011 0.0179457 0.0178759 0.0178092 0.0177422 0.0176714 0.0175953 0.0175132 0.0174243 0.0173282 0.0172245 0.0171124 0.0169912 0.0168596 0.016716 0.0165589 0.0163862 0.0161953 0.015983 0.0157508 0.015492 0.0152118 0.0149408 0.0150606 0.0166996 0.0151375 0 0 0 0 0 0 0 0 0 0 0 0 0 0 0 0 0 0 0 0 0 0 0 0 0 0 0 0 0 0 0 0 0 0 0 0 0 0 0 0 0 0 0 0 0 0 0 0 0 0 0 0 0 0 0 0 0 0 0 0 0 0 0 0 0 0 0 0 0 0 0 0 0 0 0 0 0 0 0 0 0 0 0 0 0 0 0 0 0 0 0 0 0 0 0 0 0 0 0 0 0 0 0 0 0 0 0 0 0 0 0 0 0 0 0 0 0 0 0 0 0 0 0 0 0 0 0 0 0 0 0 0 0 0 0 0 0 0 0 0 0 0 0 0 0 0 0 0 0 0 0 0 0 0 0 0 0 0 0 0 0 0 0 0 0 0 0 0 0 0 0 0 0 0 0 0 0 0 0 0 0 0 0 0 0 0 0 0 0 0 0 0 0 0 0 0 0 0 0 0 0 0 0 0 0 0 0 0 0 0 0 0 0 0 0 0 0 0 0 0 0 0 0 0 0 0 0 0 0 0 0 0 0 0 0 0 0 0 0 0 0 0 0 0 0 0 0 0 0 0 0 0 0 0 0 0 0 0 0 0 0 0 0 0 0 0 0 0 0 0 0 0 0 0 0 0 0 0 0 0 0 0 0 0 0 0 0 0 0 0 0 0 0 0 0 0 0 0 0 0 0 0 0 0 0 0 0 0 0 0 0 0 0 0 0 0 0 0 0 0 0 0 0 0 0 0 0 
0.02 0.02 0.02 0.02 0.02 0.02 0.02 0.02 0.02 0.02 0.02 0.02 0.02 0.02 0.02 0.02 0.02 0.02 0.02 0.02 0.02 0.02 0.02 0.02 0.02 0.02 0.02 0.02 0.02 0.02 0.02 0.02 0.02 0.02 0.02 0.02 0.02 0.02 0.02 0.02 0.02 0.02 0.02 0.02 0.02 0.02 0.02 0.02 0.02 0.02 0.02 0.02 0.02 0.02 0.02 0.02 0.02 0.02 0.02 0.02 0.02 0.02 0.02 0.02 0.02 0.02 0.02 0.02 0.02 0.02 0.02 0.02 0.0199999 0.0199999 0.0199999 0.0199999 0.0199999 0.0199999 0.0199999 0.0199999 0.0199999 0.0199998 0.0199998 0.0199998 0.0199998 0.0199997 0.0199997 0.0199997 0.0199996 0.0199996 0.0199996 0.0199995 0.0199994 0.0199994 0.0199993 0.0199992 0.0199992 0.0199991 0.019999 0.0199989 0.0199988 0.0199986 0.0199985 0.0199983 0.0199982 0.019998 0.0199978 0.0199976 0.0199974 0.0199971 0.0199968 0.0199966 0.0199962 0.0199959 0.0199955 0.0199951 0.0199947 0.0199943 0.0199938 0.0199932 0.0199927 0.019992 0.0199914 0.0199907 0.0199899 0.019989 0.0199881 0.0199872 0.0199861 0.019985 0.0199838 0.0199824 0.019981 0.0199795 0.0199778 0.019976 0.0199741 0.019972 0.0199697 0.0199672 0.0199646 0.0199617 0.0199586 0.0199553 0.0199517 0.0199478 0.0199437 0.0199392 0.0199344 0.0199292 0.0199237 0.0199177 0.0199114 0.0199046 0.0198974 0.0198898 0.0198817 0.0198731 0.019864 0.0198544 0.0198444 0.0198338 0.0198228 0.0198113 0.0197992 0.0197868 0.0197739 0.0197605 0.0197468 0.0197327 0.0197182 0.0197034 0.0196884 0.0196731 0.0196576 0.0196416 0.019625 0.0196081 0.0195915 0.019575 0.0195588 0.0195427 0.0195269 0.0195113 0.0194959 0.0194809 0.0194663 0.019452 0.0194382 0.0194248 0.0194119 0.0193995 0.0193876 0.0193761 0.0193652 0.0193548 0.0193449 0.0193355 0.0193266 0.0193181 0.0193099 0.0193022 0.0192948 0.0192876 0.0192808 0.0192741 0.0192675 0.0192611 0.0192547 0.0192482 0.0192417 0.0192352 0.0192284 0.0192214 0.0192142 0.0192068 0.0191989 0.0191907 0.0191822 0.0191731 0.0191636 0.0191537 0.0191431 0.019132 0.0191203 0.0191079 0.0190948 0.019081 0.0190663 0.0190507 0.0190343 0.0190168 0.0189985 0.0189798 0.0189602 0.0189404 0.0189219 0.0189034 0.0188844 0.018865 0.0188451 0.0188248 0.018804 0.0187827 0.0187609 0.0187386 0.0187157 0.0186923 0.0186683 0.0186436 0.0186182 0.0185921 0.0185653 0.0185377 0.0185094 0.0184802 0.0184502 0.0184194 0.0183876 0.018355 0.0183214 0.0182867 0.0182509 0.0182139 0.0181755 0.0181355 0.0180939 0.0180501 0.0180031 0.0179493 0.0178854 0.0178191 0.0177509 0.0176788 0.0176017 0.0175187 0.0174292 0.0173327 0.0172285 0.0171161 0.0169944 0.0168622 0.016718 0.0165602 0.0163871 0.0161958 0.0159839 0.0157535 0.0155095 0.0152328 0.0150092 0.0149699 0.0152866 0.0149121 0.0143649 0.0138457 0.0133426 0.0128196 0.0122606 0.0116223 0.0108598 0.00995351 0.00908748 0.0082268 0.00765517 0.0081048 0 0 0 0 0 0 0 0 0 0 0 0 0 0 0 0 0 0 0 0 0 0 0 0 0 0 0 0 0 0 0 0 0 0 0 0 0 0 0 0 0 0 0 0 0 0 0 0 0 0 0 0 0 0 0 0 0 0 0 0 0 0 0 0 0 0 0 0 0 0 0 0 0 0 0 0 0 0 0 0 0 0 0 0 0 0 0 0 0 0 0 0 0 0 0 0 0 0 0 0 0 0 0 0 0 0 0 0 0 0 0 0 0 0 0 0 0 0 0 0 0 0 0 0 0 0 0 0 0 0 0 0 0 0 0 0 0 0 0 0 0 0 0 0 0 0 0 0 0 0 0 0 0 0 0 0 0 0 0 0 0 0 0 0 0 0 0 0 0 0 0 0 0 0 0 0 0 0 0 0 0 0 0 0 0 0 0 0 0 0 0 0 0 0 0 0 0 0 0 0 0 0 0 0 0 0 0 0 0 0 0 0 0 0 0 0 0 0 0 0 0 0 0 0 0 0 0 0 0 0 0 0 0 0 0 0 0 0 0 0 0 0 0 0 0 0 0 0 0 0 0 0 0 0 0 0 0 0 0 0 0 0 0 0 0 0 0 0 0 0 0 0 0 0 0 0 0 0 0 0 0 0 0 0 0 0 0 0 0 0 0 0 0 0 0 0 0 0 0 0 0 0 0 0 0 0 0 0 0 0 0 0 0 0 0 
0.02 0.02 0.02 0.02 0.02 0.02 0.02 0.02 0.02 0.02 0.02 0.02 0.02 0.02 0.02 0.02 0.02 0.02 0.02 0.02 0.02 0.02 0.02 0.02 0.02 0.02 0.02 0.02 0.02 0.02 0.02 0.02 0.02 0.02 0.02 0.02 0.02 0.02 0.02 0.02 0.02 0.02 0.02 0.02 0.02 0.02 0.02 0.02 0.02 0.02 0.02 0.02 0.02 0.02 0.02 0.02 0.02 0.02 0.02 0.02 0.02 0.02 0.02 0.02 0.02 0.02 0.02 0.02 0.02 0.02 0.02 0.02 0.0199999 0.0199999 0.0199999 0.0199999 0.0199999 0.0199999 0.0199999 0.0199999 0.0199999 0.0199998 0.0199998 0.0199998 0.0199998 0.0199997 0.0199997 0.0199997 0.0199997 0.0199996 0.0199996 0.0199995 0.0199995 0.0199994 0.0199993 0.0199993 0.0199992 0.0199991 0.019999 0.0199989 0.0199988 0.0199987 0.0199985 0.0199984 0.0199982 0.019998 0.0199979 0.0199977 0.0199974 0.0199972 0.0199969 0.0199966 0.0199963 0.019996 0.0199957 0.0199953 0.0199949 0.0199944 0.0199939 0.0199934 0.0199928 0.0199922 0.0199916 0.0199909 0.0199901 0.0199893 0.0199884 0.0199875 0.0199865 0.0199853 0.0199841 0.0199828 0.0199814 0.0199799 0.0199783 0.0199765 0.0199746 0.0199725 0.0199703 0.0199679 0.0199653 0.0199625 0.0199594 0.0199561 0.0199526 0.0199487 0.0199446 0.0199402 0.0199354 0.0199303 0.0199248 0.0199189 0.0199126 0.0199059 0.0198988 0.0198912 0.0198831 0.0198746 0.0198656 0.0198561 0.0198461 0.0198355 0.0198245 0.0198131 0.0198011 0.0197887 0.0197758 0.0197625 0.0197488 0.0197347 0.0197203 0.0197055 0.0196905 0.0196752 0.0196597 0.0196438 0.0196275 0.0196108 0.0195942 0.0195777 0.0195614 0.0195453 0.0195293 0.0195137 0.0194983 0.0194832 0.0194684 0.0194541 0.0194401 0.0194266 0.0194136 0.019401 0.0193889 0.0193773 0.0193663 0.0193557 0.0193456 0.0193359 0.0193268 0.019318 0.0193096 0.0193016 0.0192939 0.0192865 0.0192794 0.0192724 0.0192656 0.0192588 0.0192521 0.0192454 0.0192386 0.0192317 0.0192247 0.0192174 0.0192099 0.0192022 0.0191941 0.0191856 0.0191768 0.0191675 0.0191577 0.0191474 0.0191366 0.0191252 0.0191131 0.0191004 0.0190869 0.0190727 0.0190578 0.0190421 0.0190256 0.0190087 0.0189913 0.0189734 0.0189558 0.0189385 0.0189212 0.0189035 0.0188854 0.0188668 0.0188479 0.0188286 0.0188088 0.0187885 0.0187678 0.0187466 0.0187248 0.0187025 0.0186795 0.0186558 0.0186315 0.0186064 0.0185806 0.018554 0.0185265 0.0184982 0.0184689 0.0184388 0.0184076 0.0183755 0.0183422 0.0183079 0.0182722 0.0182353 0.0181968 0.0181566 0.0181145 0.0180701 0.0180223 0.0179689 0.0179081 0.0178419 0.0177721 0.0176983 0.0176196 0.0175354 0.0174449 0.0173475 0.0172426 0.0171293 0.0170067 0.0168736 0.0167283 0.0165694 0.0163954 0.0162036 0.0159926 0.0157677 0.0155451 0.0153066 0.0151068 0.0150557 0.0150277 0.0147039 0.0143008 0.0138067 0.0133056 0.0127747 0.0121913 0.0115328 0.01078 0.0099569 0.0091372 0.00825681 0.00750758 0.00700318 0.00590021 0.00462768 0.00331101 0.00195317 0.000576496 -0.00092151 -0.00211506 0 0 0 0 0 0 0 0 0 0 0 0 0 0 0 0 0 0 0 0 0 0 0 0 0 0 0 0 0 0 0 0 0 0 0 0 0 0 0 0 0 0 0 0 0 0 0 0 0 0 0 0 0 0 0 0 0 0 0 0 0 0 0 0 0 0 0 0 0 0 0 0 0 0 0 0 0 0 0 0 0 0 0 0 0 0 0 0 0 0 0 0 0 0 0 0 0 0 0 0 0 0 0 0 0 0 0 0 0 0 0 0 0 0 0 0 0 0 0 0 0 0 0 0 0 0 0 0 0 0 0 0 0 0 0 0 0 0 0 0 0 0 0 0 0 0 0 0 0 0 0 0 0 0 0 0 0 0 0 0 0 0 0 0 0 0 0 0 0 0 0 0 0 0 0 0 0 0 0 0 0 0 0 0 0 0 0 0 0 0 0 0 0 0 0 0 0 0 0 0 0 0 0 0 0 0 0 0 0 0 0 0 0 0 0 0 0 0 0 0 0 0 0 0 0 0 0 0 0 0 0 0 0 0 0 0 0 0 0 0 0 0 0 0 0 0 0 0 0 0 0 0 0 0 0 0 0 0 0 0 0 0 0 0 0 0 0 0 0 0 0 0 0 0 0 0 0 0 0 0 0 0 0 0 0 0 0 0 0 0 0 0 0 0 0 0 0 0 0 0 0 0 0 0 0 0 0 2.1684e-19 
0.02 0.02 0.02 0.02 0.02 0.02 0.02 0.02 0.02 0.02 0.02 0.02 0.02 0.02 0.02 0.02 0.02 0.02 0.02 0.02 0.02 0.02 0.02 0.02 0.02 0.02 0.02 0.02 0.02 0.02 0.02 0.02 0.02 0.02 0.02 0.02 0.02 0.02 0.02 0.02 0.02 0.02 0.02 0.02 0.02 0.02 0.02 0.02 0.02 0.02 0.02 0.02 0.02 0.02 0.02 0.02 0.02 0.02 0.02 0.02 0.02 0.02 0.02 0.02 0.02 0.02 0.02 0.02 0.02 0.02 0.02 0.02 0.0199999 0.0199999 0.0199999 0.0199999 0.0199999 0.0199999 0.0199999 0.0199999 0.0199999 0.0199998 0.0199998 0.0199998 0.0199998 0.0199998 0.0199997 0.0199997 0.0199997 0.0199996 0.0199996 0.0199995 0.0199995 0.0199994 0.0199994 0.0199993 0.0199992 0.0199991 0.019999 0.0199989 0.0199988 0.0199987 0.0199986 0.0199984 0.0199983 0.0199981 0.0199979 0.0199977 0.0199975 0.0199973 0.019997 0.0199968 0.0199965 0.0199962 0.0199958 0.0199954 0.019995 0.0199946 0.0199941 0.0199936 0.0199931 0.0199925 0.0199919 0.0199912 0.0199905 0.0199897 0.0199888 0.0199879 0.0199869 0.0199858 0.0199846 0.0199834 0.019982 0.0199805 0.0199789 0.0199772 0.0199754 0.0199733 0.0199711 0.0199688 0.0199662 0.0199634 0.0199604 0.0199572 0.0199537 0.0199499 0.0199459 0.0199415 0.0199368 0.0199318 0.0199263 0.0199205 0.0199143 0.0199077 0.0199006 0.0198931 0.0198851 0.0198767 0.0198677 0.0198583 0.0198484 0.019838 0.019827 0.0198156 0.0198037 0.0197914 0.0197786 0.0197654 0.0197517 0.0197377 0.0197233 0.0197086 0.0196936 0.0196784 0.0196629 0.0196471 0.019631 0.0196145 0.019598 0.0195816 0.0195652 0.019549 0.019533 0.0195172 0.0195018 0.0194866 0.0194717 0.0194573 0.0194432 0.0194295 0.0194163 0.0194036 0.0193913 0.0193795 0.0193682 0.0193574 0.019347 0.0193371 0.0193276 0.0193185 0.0193099 0.0193015 0.0192935 0.0192857 0.0192782 0.0192708 0.0192636 0.0192565 0.0192493 0.0192422 0.0192351 0.0192278 0.0192203 0.0192127 0.0192048 0.0191967 0.0191882 0.0191793 0.0191701 0.0191604 0.0191503 0.0191397 0.0191285 0.0191167 0.0191043 0.0190913 0.0190777 0.0190634 0.0190487 0.0190334 0.0190178 0.0190019 0.0189859 0.01897 0.0189542 0.0189382 0.018922 0.0189054 0.0188886 0.0188714 0.0188538 0.0188359 0.0188176 0.0187988 0.0187796 0.0187599 0.0187397 0.0187189 0.0186974 0.0186753 0.0186525 0.0186288 0.0186044 0.0185791 0.0185529 0.0185258 0.0184977 0.0184685 0.0184383 0.018407 0.0183745 0.0183406 0.0183054 0.0182686 0.0182302 0.01819 0.0181476 0.0181027 0.0180543 0.0180007 0.0179408 0.0178748 0.017804 0.0177286 0.0176484 0.0175626 0.0174707 0.0173721 0.0172659 0.0171515 0.0170276 0.0168931 0.0167463 0.016586 0.016411 0.0162201 0.0160128 0.0157981 0.0155921 0.0154044 0.0152111 0.0150817 0.0149059 0.0146219 0.0142329 0.0137773 0.0132803 0.0127471 0.0121466 0.0114807 0.010743 0.00996271 0.00918266 0.0083771 0.00750995 0.00675346 0.00569526 0.00452945 0.00325848 0.00194562 0.000602835 -0.000730591 -0.00231333 -0.00398497 -0.00576911 -0.00760338 -0.00983694 -0.0125853 0 0 0 0 0 0 0 0 0 0 0 0 0 0 0 0 0 0 0 0 0 0 0 0 0 0 0 0 0 0 0 0 0 0 0 0 0 0 0 0 0 0 0 0 0 0 0 0 0 0 0 0 0 0 0 0 0 0 0 0 0 0 0 0 0 0 0 0 0 0 0 0 0 0 0 0 0 0 0 0 0 0 0 0 0 0 0 0 0 0 0 0 0 0 0 0 0 0 0 0 0 0 0 0 0 0 0 0 0 0 0 0 0 0 0 0 0 0 0 0 0 0 0 0 0 0 0 0 0 0 0 0 0 0 0 0 0 0 0 0 0 0 0 0 0 0 0 0 0 0 0 0 0 0 0 0 0 0 0 0 0 0 0 0 0 0 0 0 0 0 0 0 0 0 0 0 0 0 0 0 0 0 0 0 0 0 0 0 0 0 0 0 0 0 0 0 0 0 0 0 0 0 0 0 0 0 0 0 0 0 0 0 0 0 0 0 0 0 0 0 0 0 0 0 0 0 0 0 0 0 0 0 0 0 0 0 0 0 0 0 0 0 0 0 0 0 0 0 0 0 0 0 0 0 0 0 0 0 0 0 0 0 0 0 0 0 0 0 0 0 0 0 0 0 0 0 0 0 0 0 0 0 0 0 0 0 0 0 0 0 0 0 0 0 0 0 0 0 0 0 0 0 -4.33681e-19 
0.02 0.02 0.02 0.02 0.02 0.02 0.02 0.02 0.02 0.02 0.02 0.02 0.02 0.02 0.02 0.02 0.02 0.02 0.02 0.02 0.02 0.02 0.02 0.02 0.02 0.02 0.02 0.02 0.02 0.02 0.02 0.02 0.02 0.02 0.02 0.02 0.02 0.02 0.02 0.02 0.02 0.02 0.02 0.02 0.02 0.02 0.02 0.02 0.02 0.02 0.02 0.02 0.02 0.02 0.02 0.02 0.02 0.02 0.02 0.02 0.02 0.02 0.02 0.02 0.02 0.02 0.02 0.02 0.02 0.02 0.02 0.02 0.02 0.0199999 0.0199999 0.0199999 0.0199999 0.0199999 0.0199999 0.0199999 0.0199999 0.0199999 0.0199998 0.0199998 0.0199998 0.0199998 0.0199997 0.0199997 0.0199997 0.0199996 0.0199996 0.0199996 0.0199995 0.0199995 0.0199994 0.0199993 0.0199993 0.0199992 0.0199991 0.019999 0.0199989 0.0199988 0.0199987 0.0199985 0.0199984 0.0199982 0.019998 0.0199979 0.0199976 0.0199974 0.0199972 0.0199969 0.0199966 0.0199963 0.019996 0.0199957 0.0199953 0.0199949 0.0199944 0.0199939 0.0199934 0.0199929 0.0199923 0.0199916 0.0199909 0.0199901 0.0199893 0.0199884 0.0199875 0.0199864 0.0199853 0.0199841 0.0199828 0.0199813 0.0199798 0.0199781 0.0199763 0.0199743 0.0199722 0.0199699 0.0199674 0.0199647 0.0199618 0.0199586 0.0199552 0.0199515 0.0199475 0.0199432 0.0199386 0.0199337 0.0199283 0.0199226 0.0199165 0.01991 0.019903 0.0198956 0.0198877 0.0198794 0.0198706 0.0198612 0.0198514 0.0198411 0.0198303 0.019819 0.0198072 0.019795 0.0197823 0.0197691 0.0197556 0.0197416 0.0197273 0.0197127 0.0196978 0.0196826 0.0196672 0.0196515 0.0196355 0.0196193 0.0196029 0.0195865 0.0195702 0.019554 0.0195379 0.0195221 0.0195065 0.0194912 0.0194763 0.0194617 0.0194475 0.0194336 0.0194202 0.0194073 0.0193948 0.0193827 0.0193712 0.01936 0.0193494 0.0193391 0.0193293 0.0193198 0.0193107 0.019302 0.0192935 0.0192853 0.0192773 0.0192695 0.0192618 0.0192542 0.0192466 0.019239 0.0192313 0.0192236 0.0192156 0.0192075 0.0191991 0.0191905 0.0191816 0.0191723 0.0191626 0.0191525 0.019142 0.0191309 0.0191194 0.0191074 0.0190949 0.0190819 0.0190686 0.0190548 0.0190407 0.0190265 0.0190121 0.0189978 0.0189835 0.0189692 0.0189547 0.0189401 0.0189253 0.0189102 0.0188949 0.0188794 0.0188636 0.0188475 0.018831 0.0188142 0.0187969 0.0187792 0.0187609 0.018742 0.0187225 0.0187023 0.0186813 0.0186595 0.0186368 0.0186132 0.0185886 0.018563 0.0185362 0.0185084 0.0184793 0.018449 0.0184173 0.0183841 0.0183494 0.018313 0.0182747 0.0182345 0.0181918 0.0181464 0.0180972 0.0180431 0.0179831 0.0179169 0.0178454 0.0177688 0.0176869 0.0175995 0.0175061 0.0174059 0.0172982 0.0171821 0.0170566 0.0169203 0.0167719 0.01661 0.0164345 0.0162459 0.0160456 0.015842 0.0156514 0.0154813 0.0153082 0.0150959 0.0148839 0.0145766 0.0141907 0.0137526 0.0132608 0.0127209 0.0121128 0.0114491 0.0107318 0.00997683 0.00921044 0.0084293 0.00760274 0.00664669 0.00557688 0.0044302 0.00320227 0.00190554 0.000554497 -0.000868309 -0.0023973 -0.00403217 -0.00572383 -0.00754366 -0.00913905 -0.011709 -0.0138744 -0.0159588 -0.0184467 -0.0225912 0 0 0 0 0 0 0 0 0 0 0 0 0 0 0 0 0 0 0 0 0 0 0 0 0 0 0 0 0 0 0 0 0 0 0 0 0 0 0 0 0 0 0 0 0 0 0 0 0 0 0 0 0 0 0 0 0 0 0 0 0 0 0 0 0 0 0 0 0 0 0 0 0 0 0 0 0 0 0 0 0 0 0 0 0 0 0 0 0 0 0 0 0 0 0 0 0 0 0 0 0 0 0 0 0 0 0 0 0 0 0 0 0 0 0 0 0 0 0 0 0 0 0 0 0 0 0 0 0 0 0 0 0 0 0 0 0 0 0 0 0 0 0 0 0 0 0 0 0 0 0 0 0 0 0 0 0 0 0 0 0 0 0 0 0 0 0 0 0 0 0 0 0 0 0 0 0 0 0 0 0 0 0 0 0 0 0 0 0 0 0 0 0 0 0 0 0 0 0 0 0 0 0 0 0 0 0 0 0 0 0 0 0 0 0 0 0 0 0 0 0 0 0 0 0 0 0 0 0 0 0 0 0 0 0 0 0 0 0 0 0 0 0 0 0 0 0 0 0 0 0 0 0 0 0 0 0 0 0 0 0 0 0 0 0 0 0 0 0 0 0 0 0 0 0 0 0 0 0 0 0 0 0 0 0 0 0 0 0 0 0 0 0 0 0 0 0 -0.00465624 -8.67362e-19 
0.02 0.02 0.02 0.02 0.02 0.02 0.02 0.02 0.02 0.02 0.02 0.02 0.02 0.02 0.02 0.02 0.02 0.02 0.02 0.02 0.02 0.02 0.02 0.02 0.02 0.02 0.02 0.02 0.02 0.02 0.02 0.02 0.02 0.02 0.02 0.02 0.02 0.02 0.02 0.02 0.02 0.02 0.02 0.02 0.02 0.02 0.02 0.02 0.02 0.02 0.02 0.02 0.02 0.02 0.02 0.02 0.02 0.02 0.02 0.02 0.02 0.02 0.02 0.02 0.02 0.02 0.02 0.02 0.02 0.02 0.02 0.02 0.02 0.0199999 0.0199999 0.0199999 0.0199999 0.0199999 0.0199999 0.0199999 0.0199999 0.0199999 0.0199998 0.0199998 0.0199998 0.0199998 0.0199998 0.0199997 0.0199997 0.0199997 0.0199996 0.0199996 0.0199995 0.0199995 0.0199994 0.0199994 0.0199993 0.0199992 0.0199992 0.0199991 0.019999 0.0199989 0.0199987 0.0199986 0.0199985 0.0199983 0.0199982 0.019998 0.0199978 0.0199976 0.0199974 0.0199971 0.0199969 0.0199966 0.0199963 0.0199959 0.0199956 0.0199952 0.0199948 0.0199943 0.0199938 0.0199933 0.0199927 0.0199921 0.0199914 0.0199907 0.0199899 0.0199891 0.0199882 0.0199872 0.0199861 0.0199849 0.0199837 0.0199823 0.0199808 0.0199792 0.0199775 0.0199756 0.0199735 0.0199713 0.0199689 0.0199663 0.0199634 0.0199604 0.019957 0.0199534 0.0199496 0.0199454 0.0199409 0.019936 0.0199308 0.0199252 0.0199192 0.0199128 0.019906 0.0198987 0.0198909 0.0198827 0.019874 0.0198648 0.0198552 0.019845 0.0198343 0.0198231 0.0198115 0.0197994 0.0197868 0.0197738 0.0197603 0.0197465 0.0197323 0.0197178 0.019703 0.0196879 0.0196725 0.019657 0.0196411 0.0196251 0.0196089 0.0195926 0.0195763 0.0195601 0.019544 0.0195282 0.0195125 0.0194971 0.0194821 0.0194673 0.0194529 0.0194389 0.0194253 0.0194121 0.0193994 0.019387 0.0193751 0.0193637 0.0193526 0.019342 0.0193317 0.0193219 0.0193123 0.0193031 0.0192941 0.0192854 0.0192769 0.0192685 0.0192603 0.0192521 0.0192439 0.0192357 0.0192275 0.0192192 0.0192107 0.019202 0.0191931 0.0191839 0.0191745 0.0191647 0.0191546 0.0191441 0.0191332 0.0191219 0.0191103 0.0190983 0.0190861 0.0190735 0.0190608 0.0190479 0.0190349 0.019022 0.0190091 0.0189963 0.0189834 0.0189706 0.0189576 0.0189446 0.0189315 0.0189182 0.0189049 0.0188913 0.0188776 0.0188636 0.0188494 0.0188348 0.0188198 0.0188043 0.0187884 0.0187718 0.0187545 0.0187365 0.0187177 0.0186981 0.0186774 0.0186558 0.018633 0.0186092 0.0185841 0.0185577 0.0185299 0.0185008 0.01847 0.0184377 0.0184036 0.0183676 0.0183295 0.0182891 0.0182462 0.0182001 0.0181501 0.0180952 0.0180346 0.0179679 0.0178956 0.0178177 0.0177344 0.0176454 0.0175502 0.0174482 0.0173387 0.0172208 0.0170933 0.016955 0.0168047 0.0166416 0.0164662 0.0162812 0.0160901 0.015898 0.0157147 0.0155446 0.0153754 0.0151661 0.0148946 0.0145596 0.0141721 0.013736 0.0132442 0.0126973 0.012089 0.0114312 0.0107316 0.00999905 0.00922969 0.00842632 0.00754781 0.00657891 0.00551154 0.00436126 0.00314088 0.00185202 0.000481968 -0.00095881 -0.00250166 -0.0041085 -0.00580972 -0.00764797 -0.00962902 -0.0116324 -0.0137484 -0.0155036 -0.0179533 -0.020945 -0.023459 -0.02566 -0.0281048 -0.0327225 -0.0336261 0 0 0 0 0 0 0 0 0 0 0 0 0 0 0 0 0 0 0 0 0 0 0 0 0 0 0 0 0 0 0 0 0 0 0 0 0 0 0 0 0 0 0 0 0 0 0 0 0 0 0 0 0 0 0 0 0 0 0 0 0 0 0 0 0 0 0 0 0 0 0 0 0 0 0 0 0 0 0 0 0 0 0 0 0 0 0 0 0 0 0 0 0 0 0 0 0 0 0 0 0 0 0 0 0 0 0 0 0 0 0 0 0 0 0 0 0 0 0 0 0 0 0 0 0 0 0 0 0 0 0 0 0 0 0 0 0 0 0 0 0 0 0 0 0 0 0 0 0 0 0 0 0 0 0 0 0 0 0 0 0 0 0 0 0 0 0 0 0 0 0 0 0 0 0 0 0 0 0 0 0 0 0 0 0 0 0 0 0 0 0 0 0 0 0 0 0 0 0 0 0 0 0 0 0 0 0 0 0 0 0 0 0 0 0 0 0 0 0 0 0 0 0 0 0 0 0 0 0 0 0 0 0 0 0 0 0 0 0 0 0 0 0 0 0 0 0 0 0 0 0 0 0 0 0 0 0 0 0 0 0 0 0 0 0 0 0 0 0 0 0 0 0 0 0 0 0 0 0 0 0 0 0 0 0 0 0 0 0 0 0 -0.0168103 -0.00851328 2.1684e-19 
0.02 0.02 0.02 0.02 0.02 0.02 0.02 0.02 0.02 0.02 0.02 0.02 0.02 0.02 0.02 0.02 0.02 0.02 0.02 0.02 0.02 0.02 0.02 0.02 0.02 0.02 0.02 0.02 0.02 0.02 0.02 0.02 0.02 0.02 0.02 0.02 0.02 0.02 0.02 0.02 0.02 0.02 0.02 0.02 0.02 0.02 0.02 0.02 0.02 0.02 0.02 0.02 0.02 0.02 0.02 0.02 0.02 0.02 0.02 0.02 0.02 0.02 0.02 0.02 0.02 0.02 0.02 0.02 0.02 0.02 0.02 0.02 0.02 0.02 0.0199999 0.0199999 0.0199999 0.0199999 0.0199999 0.0199999 0.0199999 0.0199999 0.0199999 0.0199998 0.0199998 0.0199998 0.0199998 0.0199998 0.0199997 0.0199997 0.0199997 0.0199996 0.0199996 0.0199995 0.0199995 0.0199994 0.0199994 0.0199993 0.0199992 0.0199991 0.0199991 0.019999 0.0199989 0.0199987 0.0199986 0.0199985 0.0199983 0.0199982 0.019998 0.0199978 0.0199976 0.0199974 0.0199971 0.0199969 0.0199966 0.0199963 0.0199959 0.0199956 0.0199952 0.0199948 0.0199943 0.0199938 0.0199933 0.0199927 0.0199921 0.0199914 0.0199907 0.0199899 0.019989 0.0199881 0.0199871 0.019986 0.0199848 0.0199835 0.0199821 0.0199805 0.0199789 0.019977 0.0199751 0.0199729 0.0199706 0.0199681 0.0199654 0.0199624 0.0199592 0.0199557 0.0199519 0.0199479 0.0199435 0.0199388 0.0199337 0.0199282 0.0199224 0.0199161 0.0199094 0.0199023 0.0198947 0.0198867 0.0198781 0.0198691 0.0198596 0.0198495 0.019839 0.019828 0.0198165 0.0198046 0.0197922 0.0197793 0.019766 0.0197523 0.0197383 0.0197239 0.0197092 0.0196942 0.0196789 0.0196635 0.0196478 0.0196319 0.0196158 0.0195997 0.0195835 0.0195673 0.0195513 0.0195354 0.0195197 0.0195042 0.019489 0.0194741 0.0194596 0.0194454 0.0194315 0.0194181 0.019405 0.0193924 0.0193801 0.0193682 0.0193568 0.0193457 0.019335 0.0193246 0.0193146 0.0193048 0.0192953 0.019286 0.0192768 0.0192679 0.019259 0.0192502 0.0192414 0.0192326 0.0192237 0.0192147 0.0192056 0.0191964 0.0191869 0.0191772 0.0191672 0.019157 0.0191465 0.0191358 0.0191248 0.0191135 0.019102 0.0190904 0.0190786 0.0190668 0.019055 0.0190432 0.0190315 0.0190199 0.0190084 0.018997 0.0189857 0.0189744 0.0189632 0.018952 0.0189408 0.0189296 0.0189184 0.0189072 0.0188958 0.0188843 0.0188725 0.0188605 0.0188481 0.0188352 0.0188218 0.0188078 0.0187931 0.0187777 0.0187613 0.0187441 0.0187257 0.0187063 0.0186856 0.0186637 0.0186404 0.0186157 0.0185894 0.0185615 0.0185319 0.0185004 0.018467 0.0184314 0.0183936 0.0183532 0.0183098 0.0182631 0.0182122 0.0181563 0.0180947 0.0180272 0.0179539 0.0178748 0.0177901 0.0176994 0.0176024 0.0174985 0.0173869 0.0172668 0.0171371 0.0169968 0.0168448 0.016681 0.0165066 0.0163254 0.0161423 0.0159603 0.0157801 0.015599 0.0154017 0.0151723 0.014891 0.0145547 0.0141658 0.0137249 0.0132292 0.012679 0.0120745 0.0114234 0.0107335 0.0100085 0.00923708 0.00840493 0.00750565 0.00652056 0.00544926 0.00429806 0.00307617 0.00178024 0.000407113 -0.00106052 -0.00260714 -0.00423633 -0.00594916 -0.00780384 -0.00972583 -0.0117485 -0.0138277 -0.0159029 -0.0179267 -0.0207233 -0.0230326 -0.0253235 -0.0277821 -0.0309639 -0.0337546 -0.0360495 -0.0380379 -0.0402685 -0.0478901 -0.0467217 0 0 0 0 0 0 0 0 0 0 0 0 0 0 0 0 0 0 0 0 0 0 0 0 0 0 0 0 0 0 0 0 0 0 0 0 0 0 0 0 0 0 0 0 0 0 0 0 0 0 0 0 0 0 0 0 0 0 0 0 0 0 0 0 0 0 0 0 0 0 0 0 0 0 0 0 0 0 0 0 0 0 0 0 0 0 0 0 0 0 0 0 0 0 0 0 0 0 0 0 0 0 0 0 0 0 0 0 0 0 0 0 0 0 0 0 0 0 0 0 0 0 0 0 0 0 0 0 0 0 0 0 0 0 0 0 0 0 0 0 0 0 0 0 0 0 0 0 0 0 0 0 0 0 0 0 0 0 0 0 0 0 0 0 0 0 0 0 0 0 0 0 0 0 0 0 0 0 0 0 0 0 0 0 0 0 0 0 0 0 0 0 0 0 0 0 0 0 0 0 0 0 0 0 0 0 0 0 0 0 0 0 0 0 0 0 0 0 0 0 0 0 0 0 0 0 0 0 0 0 0 0 0 0 0 0 0 0 0 0 0 0 0 0 0 0 0 0 0 0 0 0 0 0 0 0 0 0 0 0 0 0 0 0 0 0 0 0 0 0 0 0 0 0 0 0 0 0 0 0 0 0 0 0 -0.0350401 -0.0296546 -0.0213169 -0.0116212 -4.33681e-19 
0.02 0.02 0.02 0.02 0.02 0.02 0.02 0.02 0.02 0.02 0.02 0.02 0.02 0.02 0.02 0.02 0.02 0.02 0.02 0.02 0.02 0.02 0.02 0.02 0.02 0.02 0.02 0.02 0.02 0.02 0.02 0.02 0.02 0.02 0.02 0.02 0.02 0.02 0.02 0.02 0.02 0.02 0.02 0.02 0.02 0.02 0.02 0.02 0.02 0.02 0.02 0.02 0.02 0.02 0.02 0.02 0.02 0.02 0.02 0.02 0.02 0.02 0.02 0.02 0.02 0.02 0.02 0.02 0.02 0.02 0.02 0.02 0.02 0.02 0.02 0.0199999 0.0199999 0.0199999 0.0199999 0.0199999 0.0199999 0.0199999 0.0199999 0.0199999 0.0199998 0.0199998 0.0199998 0.0199998 0.0199998 0.0199997 0.0199997 0.0199997 0.0199996 0.0199996 0.0199995 0.0199995 0.0199994 0.0199994 0.0199993 0.0199992 0.0199992 0.0199991 0.019999 0.0199989 0.0199988 0.0199986 0.0199985 0.0199984 0.0199982 0.019998 0.0199978 0.0199976 0.0199974 0.0199972 0.0199969 0.0199966 0.0199963 0.019996 0.0199957 0.0199953 0.0199949 0.0199944 0.0199939 0.0199934 0.0199928 0.0199922 0.0199915 0.0199908 0.01999 0.0199891 0.0199881 0.0199871 0.019986 0.0199848 0.0199834 0.019982 0.0199804 0.0199787 0.0199768 0.0199748 0.0199726 0.0199702 0.0199675 0.0199647 0.0199616 0.0199583 0.0199546 0.0199507 0.0199465 0.0199419 0.019937 0.0199317 0.019926 0.0199199 0.0199134 0.0199064 0.019899 0.0198911 0.0198828 0.0198739 0.0198646 0.0198548 0.0198444 0.0198336 0.0198223 0.0198105 0.0197983 0.0197856 0.0197725 0.019759 0.0197451 0.0197309 0.0197163 0.0197014 0.0196863 0.019671 0.0196554 0.0196397 0.0196238 0.0196078 0.0195917 0.0195756 0.0195596 0.0195437 0.0195279 0.0195124 0.0194971 0.0194821 0.0194673 0.0194529 0.0194388 0.019425 0.0194117 0.0193987 0.019386 0.0193738 0.0193618 0.0193503 0.019339 0.0193281 0.0193175 0.0193071 0.019297 0.0192871 0.0192773 0.0192676 0.0192581 0.0192486 0.0192391 0.0192296 0.0192201 0.0192105 0.0192008 0.0191909 0.0191809 0.0191707 0.0191604 0.0191499 0.0191392 0.0191284 0.0191174 0.0191064 0.0190953 0.0190842 0.0190732 0.0190622 0.0190514 0.0190408 0.0190303 0.01902 0.01901 0.0190001 0.0189904 0.0189809 0.0189716 0.0189625 0.0189535 0.0189446 0.0189358 0.0189271 0.0189183 0.0189094 0.0189004 0.0188911 0.0188815 0.0188715 0.018861 0.0188498 0.0188379 0.0188252 0.0188116 0.0187969 0.0187811 0.018764 0.0187456 0.0187258 0.0187045 0.0186815 0.0186569 0.0186304 0.0186019 0.0185714 0.0185387 0.0185036 0.018466 0.0184255 0.0183817 0.0183342 0.0182823 0.0182253 0.0181627 0.0180941 0.0180197 0.0179393 0.0178531 0.0177607 0.0176618 0.0175559 0.0174422 0.0173198 0.0171878 0.0170454 0.0168921 0.0167281 0.0165553 0.0163775 0.0161991 0.0160221 0.0158427 0.0156525 0.0154412 0.0151924 0.0148982 0.0145548 0.0141608 0.0137153 0.0132169 0.0126666 0.0120663 0.0114207 0.0107342 0.0100065 0.00922964 0.00838686 0.00746692 0.0064673 0.00539069 0.00423824 0.00300987 0.00170383 0.000316007 -0.00115777 -0.00271998 -0.00437147 -0.00610865 -0.00793342 -0.00987735 -0.011881 -0.0139729 -0.0161988 -0.0184825 -0.020789 -0.0230437 -0.0253517 -0.0279408 -0.0306707 -0.0331891 -0.0354424 -0.0374615 -0.039837 -0.0434742 -0.0465679 -0.0480646 -0.049429 -0.0508103 -0.0537622 -0.062802 0 0 0 0 0 0 0 0 0 0 0 0 0 0 0 0 0 0 0 0 0 0 0 0 0 0 0 0 0 0 0 0 0 0 0 0 0 0 0 0 0 0 0 0 0 0 0 0 0 0 0 0 0 0 0 0 0 0 0 0 0 0 0 0 0 0 0 0 0 0 0 0 0 0 0 0 0 0 0 0 0 0 0 0 0 0 0 0 0 0 0 0 0 0 0 0 0 0 0 0 0 0 0 0 0 0 0 0 0 0 0 0 0 0 0 0 0 0 0 0 0 0 0 0 0 0 0 0 0 0 0 0 0 0 0 0 0 0 0 0 0 0 0 0 0 0 0 0 0 0 0 0 0 0 0 0 0 0 0 0 0 0 0 0 0 0 0 0 0 0 0 0 0 0 0 0 0 0 0 0 0 0 0 0 -0.0515872 -0.0528351 -0.0522128 -0.055886 -0.0557398 -0.0562828 -0.0563011 -0.0549022 -0.053215 -0.0522752 -0.0524168 -0.0524419 -0.0522962 -0.0525687 -0.0528276 -0.0530407 -0.0532012 -0.053314 -0.0533892 -0.0534385 -0.0534723 -0.0534985 -0.0535233 -0.0535509 -0.0535839 -0.0536266 -0.0536914 -0.0537899 -0.0538849 -0.0541486 -0.0555581 -0.0642903 0 0 0 0 0 0 0 0 0 0 -0.0515379 -0.0561424 -0.0564282 -0.0569366 -0.0585738 -0.0607059 -0.0684852 0 0 0 0 0 0 0 0 0 0 0 0 0 0 0 0 0 0 0 0 0 0 0 0 0 0 0 0 0 0 0 0 0 0 0 0 0 0 0 0 0 -0.0483096 -0.0517355 -0.0518166 -0.0495806 -0.0453101 -0.0395889 -0.032282 -0.0237275 -0.013436 1.0842e-18 