# vtk DataFile Version 2.0
iteration 405
ASCII

DATASET STRUCTURED_POINTS
DIMENSIONS 621 64 1
ORIGIN 0 0 0
SPACING 0.00161031 0.00161031 0.00161031

POINT_DATA 39744
SCALARS P float 1
LOOKUP_TABLE default
0 0 0 0 0 0 0 0 0 0 0 0 0 0 0 0 0 0 0 0 0 0 0 0 0 0 0 0 0 0 0 0 0 0 0 0 0 0 0 0 0 0 0 0 0 0 0 0 0 0 0 0 0 0 0 0 0 0 0 0 0 0 0 0 0 0 0 0 0 0 0 0 0 0 0 0 0 0 0 0 0 0 0 0 0 0 0 0 0 0 0 0 0 0 0 0 0 0 0 0 0 0 0 0 0 0 0 0 0 0 0 0 0 0 0 0 0 0 0 0 0 0 0 0 0 0 0 0 0 0 0 0 0 0 0 0 0 0 0 0 0 0 0 0 0 0 0 0 0 0 0 0 0 0 0 0 0 0 0 0 0 0 0 0 0 0 0 0 0 0 0 0 0 0 0 0 0 0 0 0 0 0 0 0 0 0 0 0 0 0 0 0 0 0 0 0 0 0 0 0 0 0 0 0 0 0 0 0 0 0 0 0 0 0 0 0 0 0 0 0 0 0 0 0 0 0 0 0 0 0 0 0 0 0 0 0 0 0 0 0 0 0 0 0 0 0 0 0 0 0 0 0 0 0 0 0 0 0 0 0 0 0 0 0 0 0 0 0 0 0 0 0 0 0 0 0 0 0 0 0 0 0 0 0 0 0 0 0 0 0 0 0 0 0 0 0 0 0 0 0 0 0 0 0 0 0 0 0 0 0 0 0 0 0 0 0 0 0 0 0 0 0 0 0 0 0 0 0 0 0 0 0 0 0 0 0 0 0 0 0 0 0 0 0 0 0 0 0 0 0 0 0 0 0 0 0 0 0 0 0 0 0 0 0 0 0 0 0 0 0 0 0 0 0 0 0 0 0 0 0 0 0 0 0 0 0 0 0 0 0 0 0 0 0 0 0 0 0 0 0 0 0 0 0 0 0 0 0 0 0 0 0 0 0 0 0 0 0 0 0 0 0 0 0 0 0 0 0 0 0 0 0 0 0 0 0 0 0 0 0 0 0 0 0 0 0 0 0 0 0 0 0 0 0 0 0 0 0 0 0 0 0 0 0 0 0 0 0 0 0 0 0 0 0 0 0 0 0 0 0 0 0 0 0 0 0 0 0 0 0 0 0 0 0 0 0 0 0 0 0 0 0 0 0 0 0 0 0 0 0 0 0 0 0 0 0 0 0 0 0 0 0 0 0 0 0 0 0 0 0 0 0 0 0 0 0 0 0 0 0 0 0 0 0 0 0 0 0 0 0 0 0 0 0 0 0 0 0 0 0 0 0 0 0 0 0 0 0 0 0 0 0 0 0 0 0 0 0 0 0 0 0 0 0 0 0 0 0 0 0 0 0 0 0 0 0 0 0 0 0 0 0 0 0 0 0 0 0 0 0 0 0 0 0 0 0 0 0 0 0 0 
0.02 0.0199999 0.0199998 0.0199996 0.0199994 0.0199992 0.0199988 0.0199985 0.019998 0.0199974 0.0199966 0.0199957 0.0199945 0.019993 0.0199913 0.0199891 0.0199865 0.0199835 0.0199799 0.0199757 0.0199709 0.0199654 0.0199593 0.0199525 0.0199449 0.0199366 0.0199276 0.0199178 0.0199073 0.019896 0.0198839 0.0198708 0.0198568 0.0198418 0.0198254 0.0198077 0.0197883 0.0197669 0.0197435 0.0197174 0.0196886 0.0196564 0.0196207 0.0195809 0.0195366 0.0194875 0.0194331 0.0193729 0.0193065 0.0192333 0.0191528 0.0190642 0.0189666 0.0188591 0.0187405 0.0186095 0.0184649 0.0183052 0.0181289 0.0179345 0.0177205 0.0174851 0.017226 0.0169403 0.0166246 0.0162744 0.0158849 0.0154511 0.0149685 0.0144343 0.0138486 0.0132159 0.0125472 0.0118565 0.011122 0.0103952 0.00978357 0.00939529 0.00990905 0 0 0 0 0 0 0 0 0 0 0 0 0 0 0 0 0 0 0 0 0 0 0 0 0 0 0 0 0 0 0 0 0 0 0 0 0 0 0 0 0 0 0 0 0 0 0 0 0 0 0 0 0 0 0 0 0 0 0 0 0 0 0 0 0 0 0 0 0 0 0 0 0 0 0 0 0 0 0 0 0 0 0 0 0 0 0 0 0 0 0 0 0 0 0 0 0 0 0 0 0 0 0 0 0 0 0 0 0 0 0 0 0 0 0 0 0 0 0 0 0 0 0 0 0 0 0 0 0 0 0 0 0 0 0 0 0 0 0 0 0 0 0 0 0 0 0 0 0 0 0 0 0 0 0 0 0 0 0 0 0 0 0 0 0 0 0 0 0 0 0 0 0 0 0 0 0 0 0 0 0 0 0 0 0 0 0 0 0 0 0 0 0 0 0 0 0 0 0 0 0 0 0 0 0 0 0 0 0 0 0 0 0 0 0 0 0 0 0 0 0 0 0 0 0 0 0 0 0 0 0 0 0 0 0 0 0 0 0 0 0 0 0 0 0 0 0 0 0 0 0 0 0 0 0 0 0 0 0 0 0 0 0 0 0 0 0 0 0 0 0 0 0 0 0 0 0 0 0 0 0 0 0 0 0 0 0 0 0 0 0 0 0 0 0 0 0 0 0 0 0 0 0 0 0 0 0 0 0 0 0 0 0 0 0 0 0 0 0 0 0 0 0 0 0 0 0 0 0 0 0 0 0 0 0 0 0 0 0 0 0 0 0 0 0 0 0 0 0 0 0 0 0 0 0 0 0 0 0 0 0 0 0 0 0 0 0 0 0 0 0 0 0 0 0 0 0 0 0 0 0 0 0 0 0 0 0 0 0 0 0 0 0 0 0 0 0 0 0 0 0 0 0 0 0 0 0 0 0 0 0 0 0 0 0 0 0 0 0 0 0 0 0 0 0 0 0 0 0 0 0 0 0 0 0 0 0 0 0 0 0 0 0 0 0 0 0 0 0 0 0 0 0 0 0 0 0 0 0 0 0 0 0 0 0 0 0 0 0 0 0 0 0 0 0 0 0 0 0 0 0 0 0 0 0 0 0 0 0 0 0 0 0 0 0 0 0 0 0 0 0 0 0 0 0 0 0 0 0 0 0 0 0 0 0 0 0 0 0 0 0 0 0 0 0 0 0 0 0 0 0 0 0 0 0 0 0 0 0 0 0 0 
0.02 0.0199999 0.0199998 0.0199996 0.0199994 0.0199992 0.0199989 0.0199985 0.019998 0.0199974 0.0199967 0.0199958 0.0199946 0.0199932 0.0199915 0.0199894 0.0199869 0.0199839 0.0199804 0.0199763 0.0199717 0.0199663 0.0199603 0.0199537 0.0199463 0.0199382 0.0199295 0.01992 0.0199098 0.0198988 0.019887 0.0198744 0.0198608 0.0198461 0.0198303 0.019813 0.0197942 0.0197735 0.0197506 0.0197252 0.019697 0.0196656 0.0196306 0.0195916 0.0195481 0.0194999 0.0194463 0.019387 0.0193216 0.0192494 0.0191698 0.0190823 0.0189858 0.0188794 0.018762 0.0186321 0.0184885 0.0183297 0.0181541 0.0179601 0.0177462 0.0175104 0.0172505 0.0169637 0.0166465 0.0162945 0.0159032 0.0154675 0.0149832 0.0144474 0.0138598 0.0132248 0.0125524 0.0118557 0.011142 0.0104355 0.00983259 0.00943388 0.00940582 0.00956713 0.0097955 0.010285 0.0124008 0 0 0 0 0 0 0 0 0 0 0 0 0 0 0 0 0 0 0 0 0 0 0 0 0 0 0 0 0 0 0 0 0 0 0 0 0 0 0 0 0 0 0 0 0 0 0 0 0 0 0 0 0 0 0 0 0 0 0 0 0 0 0 0 0 0 0 0 0 0 0 0 0 0 0 0 0 0 0 0 0 0 0 0 0 0 0 0 0 0 0 0 0 0 0 0 0 0 0 0 0 0 0 0 0 0 0 0 0 0 0 0 0 0 0 0 0 0 0 0 0 0 0 0 0 0 0 0 0 0 0 0 0 0 0 0 0 0 0 0 0 0 0 0 0 0 0 0 0 0 0 0 0 0 0 0 0 0 0 0 0 0 0 0 0 0 0 0 0 0 0 0 0 0 0 0 0 0 0 0 0 0 0 0 0 0 0 0 0 0 0 0 0 0 0 0 0 0 0 0 0 0 0 0 0 0 0 0 0 0 0 0 0 0 0 0 0 0 0 0 0 0 0 0 0 0 0 0 0 0 0 0 0 0 0 0 0 0 0 0 0 0 0 0 0 0 0 0 0 0 0 0 0 0 0 0 0 0 0 0 0 0 0 0 0 0 0 0 0 0 0 0 0 0 0 0 0 0 0 0 0 0 0 0 0 0 0 0 0 0 0 0 0 0 0 0 0 0 0 0 0 0 0 0 0 0 0 0 0 0 0 0 0 0 0 0 0 0 0 0 0 0 0 0 0 0 0 0 0 0 0 0 0 0 0 0 0 0 0 0 0 0 0 0 0 0 0 0 0 0 0 0 0 0 0 0 0 0 0 0 0 0 0 0 0 0 0 0 0 0 0 0 0 0 0 0 0 0 0 0 0 0 0 0 0 0 0 0 0 0 0 0 0 0 0 0 0 0 0 0 0 0 0 0 0 0 0 0 0 0 0 0 0 0 0 0 0 0 0 0 0 0 0 0 0 0 0 0 0 0 0 0 0 0 0 0 0 0 0 0 0 0 0 0 0 0 0 0 0 0 0 0 0 0 0 0 0 0 0 0 0 0 0 0 0 0 0 0 0 0 0 0 0 0 0 0 0 0 0 0 0 0 0 0 0 0 0 0 0 0 0 0 0 0 0 0 0 0 0 0 0 0 0 0 0 0 0 0 0 0 0 0 0 0 0 0 0 0 0 0 0 0 0 0 0 0 0 0 0 0 0 0 0 0 0 0 0 0 
0.02 0.0199999 0.0199998 0.0199996 0.0199994 0.0199992 0.0199989 0.0199985 0.0199981 0.0199975 0.0199968 0.0199959 0.0199947 0.0199934 0.0199917 0.0199896 0.0199872 0.0199843 0.0199808 0.0199769 0.0199723 0.0199671 0.0199613 0.0199548 0.0199476 0.0199398 0.0199313 0.0199221 0.0199121 0.0199015 0.0198901 0.0198778 0.0198647 0.0198504 0.0198351 0.0198183 0.0198 0.0197798 0.0197575 0.0197328 0.0197053 0.0196746 0.0196403 0.0196021 0.0195595 0.019512 0.0194594 0.0194011 0.0193366 0.0192655 0.0191871 0.0191008 0.0190056 0.0189005 0.0187843 0.0186558 0.0185133 0.0183555 0.0181806 0.0179871 0.0177733 0.0175371 0.0172765 0.0169885 0.0166697 0.016316 0.0159228 0.0154854 0.0149996 0.0144624 0.0138736 0.0132371 0.0125624 0.0118631 0.0111548 0.0104663 0.00986828 0.00946108 0.00932488 0.00941837 0.00965068 0.0100736 0.0108217 0.0113926 0.0115748 0.0127013 0 0 0 0 0 0 0 0 0 0 0 0 0 0 0 0 0 0 0 0 0 0 0 0 0 0 0 0 0 0 0 0 0 0 0 0 0 0 0 0 0 0 0 0 0 0 0 0 0 0 0 0 0 0 0 0 0 0 0 0 0 0 0 0 0 0 0 0 0 0 0 0 0 0 0 0 0 0 0 0 0 0 0 0 0 0 0 0 0 0 0 0 0 0 0 0 0 0 0 0 0 0 0 0 0 0 0 0 0 0 0 0 0 0 0 0 0 0 0 0 0 0 0 0 0 0 0 0 0 0 0 0 0 0 0 0 0 0 0 0 0 0 0 0 0 0 0 0 0 0 0 0 0 0 0 0 0 0 0 0 0 0 0 0 0 0 0 0 0 0 0 0 0 0 0 0 0 0 0 0 0 0 0 0 0 0 0 0 0 0 0 0 0 0 0 0 0 0 0 0 0 0 0 0 0 0 0 0 0 0 0 0 0 0 0 0 0 0 0 0 0 0 0 0 0 0 0 0 0 0 0 0 0 0 0 0 0 0 0 0 0 0 0 0 0 0 0 0 0 0 0 0 0 0 0 0 0 0 0 0 0 0 0 0 0 0 0 0 0 0 0 0 0 0 0 0 0 0 0 0 0 0 0 0 0 0 0 0 0 0 0 0 0 0 0 0 0 0 0 0 0 0 0 0 0 0 0 0 0 0 0 0 0 0 0 0 0 0 0 0 0 0 0 0 0 0 0 0 0 0 0 0 0 0 0 0 0 0 0 0 0 0 0 0 0 0 0 0 0 0 0 0 0 0 0 0 0 0 0 0 0 0 0 0 0 0 0 0 0 0 0 0 0 0 0 0 0 0 0 0 0 0 0 0 0 0 0 0 0 0 0 0 0 0 0 0 0 0 0 0 0 0 0 0 0 0 0 0 0 0 0 0 0 0 0 0 0 0 0 0 0 0 0 0 0 0 0 0 0 0 0 0 0 0 0 0 0 0 0 0 0 0 0 0 0 0 0 0 0 0 0 0 0 0 0 0 0 0 0 0 0 0 0 0 0 0 0 0 0 0 0 0 0 0 0 0 0 0 0 0 0 0 0 0 0 0 0 0 0 0 0 0 0 0 0 0 0 0 0 0 0 0 0 0 0 0 0 0 0 0 0 0 0 0 0 0 0 0 0 0 0 0 0 0 0 0 0 0 0 0 0 0 0 0 0 
0.02 0.0199999 0.0199998 0.0199996 0.0199994 0.0199992 0.0199989 0.0199986 0.0199981 0.0199975 0.0199968 0.019996 0.0199949 0.0199935 0.0199919 0.0199899 0.0199875 0.0199847 0.0199814 0.0199775 0.0199731 0.0199681 0.0199624 0.0199561 0.0199492 0.0199416 0.0199334 0.0199244 0.0199148 0.0199045 0.0198935 0.0198816 0.0198689 0.0198551 0.0198402 0.0198239 0.0198061 0.0197866 0.0197649 0.0197408 0.019714 0.0196841 0.0196506 0.0196132 0.0195715 0.0195251 0.0194735 0.0194164 0.0193532 0.0192834 0.0192065 0.0191217 0.0190281 0.0189248 0.0188106 0.0186839 0.0185433 0.0183872 0.0182139 0.0180218 0.017809 0.0175735 0.0173129 0.0170246 0.0167052 0.0163505 0.0159563 0.0155179 0.0150313 0.0144936 0.0139044 0.0132671 0.0125903 0.0118878 0.0111786 0.0104944 0.00989406 0.00945809 0.00924705 0.00926756 0.00947381 0.00986803 0.0104161 0.0108622 0.0105805 0.0110655 0.0103972 0.0104225 0 0 0 0 0 0 0 0 0 0 0 0 0 0 0 0 0 0 0 0 0 0 0 0 0 0 0 0 0 0 0 0 0 0 0 0 0 0 0 0 0 0 0 0 0 0 0 0 0 0 0 0 0 0 0 0 0 0 0 0 0 0 0 0 0 0 0 0 0 0 0 0 0 0 0 0 0 0 0 0 0 0 0 0 0 0 0 0 0 0 0 0 0 0 0 0 0 0 0 0 0 0 0 0 0 0 0 0 0 0 0 0 0 0 0 0 0 0 0 0 0 0 0 0 0 0 0 0 0 0 0 0 0 0 0 0 0 0 0 0 0 0 0 0 0 0 0 0 0 0 0 0 0 0 0 0 0 0 0 0 0 0 0 0 0 0 0 0 0 0 0 0 0 0 0 0 0 0 0 0 0 0 0 0 0 0 0 0 0 0 0 0 0 0 0 0 0 0 0 0 0 0 0 0 0 0 0 0 0 0 0 0 0 0 0 0 0 0 0 0 0 0 0 0 0 0 0 0 0 0 0 0 0 0 0 0 0 0 0 0 0 0 0 0 0 0 0 0 0 0 0 0 0 0 0 0 0 0 0 0 0 0 0 0 0 0 0 0 0 0 0 0 0 0 0 0 0 0 0 0 0 0 0 0 0 0 0 0 0 0 0 0 0 0 0 0 0 0 0 0 0 0 0 0 0 0 0 0 0 0 0 0 0 0 0 0 0 0 0 0 0 0 0 0 0 0 0 0 0 0 0 0 0 0 0 0 0 0 0 0 0 0 0 0 0 0 0 0 0 0 0 0 0 0 0 0 0 0 0 0 0 0 0 0 0 0 0 0 0 0 0 0 0 0 0 0 0 0 0 0 0 0 0 0 0 0 0 0 0 0 0 0 0 0 0 0 0 0 0 0 0 0 0 0 0 0 0 0 0 0 0 0 0 0 0 0 0 0 0 0 0 0 0 0 0 0 0 0 0 0 0 0 0 0 0 0 0 0 0 0 0 0 0 0 0 0 0 0 0 0 0 0 0 0 0 0 0 0 0 0 0 0 0 0 0 0 0 0 0 0 0 0 0 0 0 0 0 0 0 0 0 0 0 0 0 0 0 0 0 0 0 0 0 0 0 0 0 0 0 0 0 0 0 0 0 0 0 0 0 0 0 0 0 0 0 0 0 0 0 0 0 0 0 0 0 0 0 0 0 0 0 -0.00412479 -1.0842e-19 
0.02 0.0199999 0.0199998 0.0199996 0.0199995 0.0199992 0.0199989 0.0199986 0.0199982 0.0199976 0.0199969 0.0199961 0.019995 0.0199938 0.0199922 0.0199903 0.019988 0.0199852 0.019982 0.0199783 0.019974 0.0199692 0.0199637 0.0199577 0.019951 0.0199437 0.0199357 0.0199271 0.0199179 0.0199079 0.0198972 0.0198858 0.0198734 0.0198601 0.0198456 0.0198299 0.0198126 0.0197936 0.0197726 0.0197492 0.0197231 0.019694 0.0196614 0.019625 0.0195844 0.0195391 0.0194888 0.019433 0.0193713 0.0193032 0.0192281 0.0191452 0.0190539 0.0189529 0.018841 0.018717 0.0185791 0.0184258 0.0182553 0.0180657 0.0178552 0.0176216 0.0173627 0.0170754 0.0167567 0.0164024 0.0160085 0.0155705 0.0150845 0.0145475 0.0139589 0.0133216 0.0126432 0.0119368 0.0112223 0.0105319 0.00991625 0.00944003 0.00915511 0.00908237 0.00921646 0.00954212 0.00999084 0.0103775 0.0105067 0.00995891 0.00910929 0.00813789 0.00669448 0.00603008 0 0 0 0 0 0 0 0 0 0 0 0 0 0 0 0 0 0 0 0 0 0 0 0 0 0 0 0 0 0 0 0 0 0 0 0 0 0 0 0 0 0 0 0 0 0 0 0 0 0 0 0 0 0 0 0 0 0 0 0 0 0 0 0 0 0 0 0 0 0 0 0 0 0 0 0 0 0 0 0 0 0 0 0 0 0 0 0 0 0 0 0 0 0 0 0 0 0 0 0 0 0 0 0 0 0 0 0 0 0 0 0 0 0 0 0 0 0 0 0 0 0 0 0 0 0 0 0 0 0 0 0 0 0 0 0 0 0 0 0 0 0 0 0 0 0 0 0 0 0 0 0 0 0 0 0 0 0 0 0 0 0 0 0 0 0 0 0 0 0 0 0 0 0 0 0 0 0 0 0 0 0 0 0 0 0 0 0 0 0 0 0 0 0 0 0 0 0 0 0 0 0 0 0 0 0 0 0 0 0 0 0 0 0 0 0 0 0 0 0 0 0 0 0 0 0 0 0 0 0 0 0 0 0 0 0 0 0 0 0 0 0 0 0 0 0 0 0 0 0 0 0 0 0 0 0 0 0 0 0 0 0 0 0 0 0 0 0 0 0 0 0 0 0 0 0 0 0 0 0 0 0 0 0 0 0 0 0 0 0 0 0 0 0 0 0 0 0 0 0 0 0 0 0 0 0 0 0 0 0 0 0 0 0 0 0 0 0 0 0 0 0 0 0 0 0 0 0 0 0 0 0 0 0 0 0 0 0 0 0 0 0 0 0 0 0 0 0 0 0 0 0 0 0 0 0 0 0 0 0 0 0 0 0 0 0 0 0 0 0 0 0 0 0 0 0 0 0 0 0 0 0 0 0 0 0 0 0 0 0 0 0 0 0 0 0 0 0 0 0 0 0 0 0 0 0 0 0 0 0 0 0 0 0 0 0 0 0 0 0 0 0 0 0 0 0 0 0 0 0 0 0 0 0 0 0 0 0 0 0 0 0 0 0 0 0 0 0 0 0 0 0 0 0 0 0 0 0 0 0 0 0 0 0 0 0 0 0 0 0 0 0 0 0 0 0 0 0 0 0 0 0 0 0 0 0 0 0 0 0 0 0 0 0 0 0 0 0 0 0 0 0 0 0 0 0 0 0 0 0 0 0 0 0 0 0 0 0 0 0 0 0 0 0 0 0 0 0 -0.0136297 -0.00706507 -4.33681e-19 
0.02 0.0199999 0.0199998 0.0199997 0.0199995 0.0199993 0.019999 0.0199986 0.0199982 0.0199977 0.0199971 0.0199963 0.0199953 0.019994 0.0199925 0.0199907 0.0199885 0.0199858 0.0199828 0.0199792 0.0199751 0.0199705 0.0199653 0.0199594 0.019953 0.019946 0.0199384 0.0199301 0.0199212 0.0199116 0.0199013 0.0198902 0.0198782 0.0198653 0.0198513 0.0198361 0.0198194 0.019801 0.0197806 0.019758 0.0197327 0.0197045 0.0196729 0.0196376 0.0195982 0.0195542 0.0195053 0.0194512 0.0193912 0.019325 0.0192521 0.0191716 0.0190827 0.0189845 0.0188758 0.018755 0.0186206 0.018471 0.0183044 0.0181187 0.017912 0.0176821 0.0174263 0.0171419 0.0168256 0.0164735 0.0160816 0.0156457 0.0151618 0.0146272 0.0140408 0.0134049 0.0127258 0.0120157 0.011294 0.0105906 0.0099493 0.00942309 0.00905981 0.00889007 0.00892358 0.00914202 0.00947384 0.00976839 0.00982231 0.00937427 0.0081861 0.0068732 0.00461856 0.00329723 -0.000529255 0 0 0 0 0 0 0 0 0 0 0 0 0 0 0 0 0 0 0 0 0 0 0 0 0 0 0 0 0 0 0 0 0 0 0 0 0 0 0 0 0 0 0 0 0 0 0 0 0 0 0 0 0 0 0 0 0 0 0 0 0 0 0 0 0 0 0 0 0 0 0 0 0 0 0 0 0 0 0 0 0 0 0 0 0 0 0 0 0 0 0 0 0 0 0 0 0 0 0 0 0 0 0 0 0 0 0 0 0 0 0 0 0 0 0 0 0 0 0 0 0 0 0 0 0 0 0 0 0 0 0 0 0 0 0 0 0 0 0 0 0 0 0 0 0 0 0 0 0 0 0 0 0 0 0 0 0 0 0 0 0 0 0 0 0 0 0 0 0 0 0 0 0 0 0 0 0 0 0 0 0 0 0 0 0 0 0 0 0 0 0 0 0 0 0 0 0 0 0 0 0 0 0 0 0 0 0 0 0 0 0 0 0 0 0 0 0 0 0 0 0 0 0 0 0 0 0 0 0 0 0 0 0 0 0 0 0 0 0 0 0 0 0 0 0 0 0 0 0 0 0 0 0 0 0 0 0 0 0 0 0 0 0 0 0 0 0 0 0 0 0 0 0 0 0 0 0 0 0 0 0 0 0 0 0 0 0 0 0 0 0 0 0 0 0 0 0 0 0 0 0 0 0 0 0 0 0 0 0 0 0 0 0 0 0 0 0 0 0 0 0 0 0 0 0 0 0 0 0 0 0 0 0 0 0 0 0 0 0 0 0 0 0 0 0 0 0 0 0 0 0 0 0 0 0 0 0 0 0 0 0 0 0 0 0 0 0 0 0 0 0 0 0 0 0 0 0 0 0 0 0 0 0 0 0 0 0 0 0 0 0 0 0 0 0 0 0 0 0 0 0 0 0 0 0 0 0 0 0 0 0 0 0 0 0 0 0 0 0 0 0 0 0 0 0 0 0 0 0 0 0 0 0 0 0 0 0 0 0 0 0 0 0 0 0 0 0 0 0 0 0 0 0 0 0 0 0 0 0 0 0 0 0 0 0 0 0 0 0 0 0 0 0 0 0 0 0 0 0 0 0 0 0 0 0 0 0 0 0 0 0 0 0 0 0 0 0 0 0 0 0 0 0 0 0 0 0 0 0 0 0 0 0 0 0 0 0 0 0 0 0 0 0 -0.0313226 -0.0319494 -0.0289858 -0.0236372 -0.0169009 -0.00922124 1.73472e-18 
0.02 0.0199999 0.0199998 0.0199997 0.0199995 0.0199993 0.019999 0.0199987 0.0199983 0.0199978 0.0199972 0.0199965 0.0199955 0.0199943 0.0199929 0.0199912 0.0199891 0.0199866 0.0199837 0.0199803 0.0199764 0.019972 0.019967 0.0199614 0.0199553 0.0199486 0.0199412 0.0199333 0.0199247 0.0199154 0.0199055 0.0198948 0.0198833 0.0198708 0.0198573 0.0198426 0.0198265 0.0198087 0.0197891 0.0197673 0.0197429 0.0197157 0.0196853 0.0196512 0.0196131 0.0195707 0.0195235 0.0194711 0.0194132 0.0193493 0.0192788 0.0192009 0.019115 0.01902 0.0189147 0.0187978 0.0186676 0.0185225 0.0183606 0.0181801 0.0179786 0.0177539 0.0175032 0.0172236 0.0169118 0.016564 0.0161763 0.0157446 0.0152652 0.0147351 0.0141531 0.0135207 0.0128431 0.012131 0.0114018 0.0106823 0.0100098 0.00942872 0.00898293 0.00870662 0.00861633 0.00869731 0.00888316 0.00904872 0.00900906 0.00855978 0.00748035 0.00561123 0.00313208 -1.3104e-06 -0.00376057 0 0 0 0 0 0 0 0 0 0 0 0 0 0 0 0 0 0 0 0 0 0 0 0 0 0 0 0 0 0 0 0 0 0 0 0 0 0 0 0 0 0 0 0 0 0 0 0 0 0 0 0 0 0 0 0 0 0 0 0 0 0 0 0 0 0 0 0 0 0 0 0 0 0 0 0 0 0 0 0 0 0 0 0 0 0 0 0 0 0 0 0 0 0 0 0 0 0 0 0 0 0 0 0 0 0 0 0 0 0 0 0 0 0 0 0 0 0 0 0 0 0 0 0 0 0 0 0 0 0 0 0 0 0 0 0 0 0 0 0 0 0 0 0 0 0 0 0 0 0 0 0 0 0 0 0 0 0 0 0 0 0 0 0 0 0 0 0 0 0 0 0 0 0 0 0 0 0 0 0 0 0 0 0 0 0 0 0 0 0 0 0 0 0 0 0 0 0 0 0 0 0 0 0 0 0 0 0 0 0 0 0 0 0 0 0 0 0 0 0 0 0 0 0 0 0 0 0 0 0 0 0 0 0 0 0 0 0 0 0 0 0 0 0 0 0 0 0 0 0 0 0 0 0 0 0 0 0 0 0 0 0 0 0 0 0 0 0 0 0 0 0 0 0 0 0 0 0 0 0 0 0 0 0 0 0 0 0 0 0 0 0 0 0 0 0 0 0 0 0 0 0 0 0 0 0 0 0 0 0 0 0 0 0 0 0 0 0 0 0 0 0 0 0 0 0 0 0 0 0 0 0 0 0 0 0 0 0 0 0 0 0 0 0 0 0 0 0 0 0 0 0 0 0 0 0 0 0 0 0 0 0 0 0 0 0 0 0 0 0 0 0 0 0 0 0 0 0 0 0 0 0 0 0 0 0 0 0 0 0 0 0 0 0 0 0 0 0 0 0 0 0 0 0 0 0 0 0 0 0 0 0 0 0 0 -0.0397719 -0.0436417 -0.0461578 -0.0488279 -0.050336 -0.0510285 -0.0511703 -0.0508853 -0.050381 -0.0496125 -0.0485466 -0.0469627 -0.0450982 -0.0443699 -0.0440145 -0.0429671 -0.0415385 -0.0402532 -0.0391694 -0.0383322 -0.0376616 -0.0371097 -0.0365029 -0.0359055 -0.0356055 -0.0354811 -0.0354451 -0.0354883 -0.0355624 -0.035805 -0.0363581 -0.0371004 -0.0389874 -0.0377791 -0.0439793 -0.0413584 -0.0408937 -0.0412974 -0.0419322 -0.0424324 -0.0423463 -0.0391595 -0.0454658 -0.0470776 -0.0455312 -0.0453659 -0.0457889 -0.0459254 -0.0468428 -0.0469425 -0.0472907 -0.0471992 -0.0471708 -0.0468978 -0.0466519 -0.0462819 -0.0458976 -0.0454612 -0.0449928 -0.0445294 -0.0440697 -0.0436269 -0.0432127 -0.0428282 -0.0424782 -0.0421652 -0.0418898 -0.0416525 -0.0414531 -0.041291 -0.0411648 -0.0410727 -0.041012 -0.0409796 -0.0409726 -0.0409878 -0.0410223 -0.041073 -0.0411368 -0.0412105 -0.0412908 -0.0413747 -0.0414591 -0.0415407 -0.0416145 -0.0416621 -0.0416546 -0.0416785 -0.0417152 -0.0417485 -0.0417713 -0.0417802 -0.0417731 -0.041749 -0.0417079 -0.0416493 -0.0415724 -0.0414758 -0.0413567 -0.0412117 -0.0410357 -0.0408215 -0.0405586 -0.04023 -0.0398089 -0.0392485 -0.0384312 -0.0371566 -0.0350232 -0.0328173 -0.0293788 -0.0244055 -0.0181238 -0.0103276 -2.1684e-19 
0.02 0.0199999 0.0199998 0.0199997 0.0199995 0.0199993 0.0199991 0.0199988 0.0199984 0.019998 0.0199974 0.0199967 0.0199958 0.0199947 0.0199934 0.0199917 0.0199898 0.0199874 0.0199847 0.0199815 0.0199778 0.0199736 0.0199689 0.0199636 0.0199578 0.0199513 0.0199443 0.0199367 0.0199284 0.0199195 0.01991 0.0198997 0.0198886 0.0198766 0.0198636 0.0198495 0.0198341 0.0198171 0.0197983 0.0197774 0.0197541 0.019728 0.0196988 0.0196662 0.0196297 0.019589 0.0195437 0.0194935 0.0194379 0.0193764 0.0193087 0.0192338 0.0191512 0.0190597 0.0189582 0.0188455 0.0187198 0.0185798 0.0184234 0.0182489 0.0180538 0.0178358 0.017592 0.0173193 0.0170143 0.0166734 0.0162926 0.0158679 0.0153959 0.0148733 0.0142988 0.0136729 0.0129999 0.0122884 0.0115535 0.0108178 0.0101124 0.00947443 0.00894268 0.00855059 0.00831802 0.00823675 0.00825184 0.00825547 0.00808711 0.00753819 0.00643257 0.00450296 0.00167487 -0.00221159 -0.00758509 -0.0131255 0 0 0 0 0 0 0 0 0 0 0 0 0 0 0 0 0 0 0 0 0 0 0 0 0 0 0 0 0 0 0 0 0 0 0 0 0 0 0 0 0 0 0 0 0 0 0 0 0 0 0 0 0 0 0 0 0 0 0 0 0 0 0 0 0 0 0 0 0 0 0 0 0 0 0 0 0 0 0 0 0 0 0 0 0 0 0 0 0 0 0 0 0 0 0 0 0 0 0 0 0 0 0 0 0 0 0 0 0 0 0 0 0 0 0 0 0 0 0 0 0 0 0 0 0 0 0 0 0 0 0 0 0 0 0 0 0 0 0 0 0 0 0 0 0 0 0 0 0 0 0 0 0 0 0 0 0 0 0 0 0 0 0 0 0 0 0 0 0 0 0 0 0 0 0 0 0 0 0 0 0 0 0 0 0 0 0 0 0 0 0 0 0 0 0 0 0 0 0 0 0 0 0 0 0 0 0 0 0 0 0 0 0 0 0 0 0 0 0 0 0 0 0 0 0 0 0 0 0 0 0 0 0 0 0 0 0 0 0 0 0 0 0 0 0 0 0 0 0 0 0 0 0 0 0 0 0 0 0 0 0 0 0 0 0 0 0 0 0 0 0 0 0 0 0 0 0 0 0 0 0 0 0 0 0 0 0 0 0 0 0 0 0 0 0 0 0 0 0 0 0 0 0 0 0 0 0 0 0 0 0 0 0 0 0 0 0 0 0 0 0 0 0 0 0 0 0 0 0 0 0 0 0 0 0 0 0 0 0 0 0 0 0 0 0 0 0 0 0 0 0 0 0 0 0 0 0 0 0 0 0 0 0 0 0 0 0 0 0 0 0 0 0 0 0 0 0 0 0 0 0 0 0 0 0 0 0 0 0 0 0 0 0 0 0 0 0 0 0 0 0 0 0 0 0 0 0 0 0 0 0 0 0 -0.0380498 -0.0383903 -0.0441829 -0.0463063 -0.0486154 -0.0500908 -0.0507401 -0.0508934 -0.0505796 -0.0500765 -0.0492309 -0.0480578 -0.0465639 -0.0450321 -0.0442752 -0.0437858 -0.0428582 -0.0415747 -0.04035 -0.0392644 -0.0383816 -0.037676 -0.0370829 -0.0365353 -0.0360352 -0.0357283 -0.0355698 -0.0355121 -0.0355657 -0.0357244 -0.0360435 -0.0369812 -0.0377137 -0.0393725 -0.0400346 -0.0402495 -0.0407739 -0.0407531 -0.0413901 -0.0420446 -0.042704 -0.0429239 -0.0433768 -0.0444642 -0.0451848 -0.0451171 -0.0453719 -0.0457201 -0.0460504 -0.0466568 -0.0468347 -0.0471691 -0.0470629 -0.0471026 -0.046807 -0.0466034 -0.0462455 -0.0458662 -0.0454517 -0.0449914 -0.044535 -0.0440856 -0.043647 -0.043237 -0.0428567 -0.0425089 -0.0421982 -0.0419243 -0.0416884 -0.04149 -0.0413285 -0.0412026 -0.0411103 -0.0410492 -0.0410162 -0.0410083 -0.0410223 -0.0410553 -0.041104 -0.0411652 -0.041236 -0.0413129 -0.0413931 -0.0414735 -0.0415511 -0.0416198 -0.0416683 -0.0416904 -0.0417144 -0.0417408 -0.0417628 -0.0417752 -0.0417753 -0.0417611 -0.0417317 -0.0416871 -0.0416268 -0.0415501 -0.0414557 -0.041341 -0.0412026 -0.0410354 -0.0408321 -0.0405814 -0.0402654 -0.0398526 -0.0392779 -0.0384183 -0.0371355 -0.0352775 -0.0328979 -0.0294874 -0.0248293 -0.0188456 -0.0109828 -1.30104e-18 
0.02 0.0199999 0.0199998 0.0199997 0.0199996 0.0199994 0.0199992 0.0199989 0.0199985 0.0199981 0.0199976 0.0199969 0.0199961 0.0199951 0.0199939 0.0199924 0.0199905 0.0199883 0.0199858 0.0199828 0.0199793 0.0199754 0.0199709 0.0199659 0.0199604 0.0199542 0.0199475 0.0199402 0.0199324 0.0199238 0.0199147 0.0199049 0.0198943 0.0198829 0.0198706 0.0198572 0.0198425 0.0198264 0.0198085 0.0197887 0.0197666 0.0197418 0.019714 0.019683 0.0196482 0.0196095 0.0195663 0.0195185 0.0194655 0.0194069 0.0193422 0.0192707 0.0191916 0.019104 0.0190067 0.0188984 0.0187777 0.0186431 0.0184927 0.0183247 0.0181369 0.0179267 0.0176913 0.0174274 0.0171316 0.0168002 0.0164293 0.016015 0.0155538 0.0150425 0.0144793 0.0138641 0.0131998 0.012493 0.0117557 0.0110059 0.0102683 0.00957318 0.00895317 0.00843859 0.00805031 0.00778705 0.00760798 0.00741982 0.00708221 0.00641618 0.00520595 0.00324683 0.000243295 -0.00392287 -0.00932813 -0.0167179 -0.0238836 0 0 0 0 0 0 0 0 0 0 0 0 0 0 0 0 0 0 0 0 0 0 0 0 0 0 0 0 0 0 0 0 0 0 0 0 0 0 0 0 0 0 0 0 0 0 0 0 0 0 0 0 0 0 0 0 0 0 0 0 0 0 0 0 0 0 0 0 0 0 0 0 0 0 0 0 0 0 0 0 0 0 0 0 0 0 0 0 0 0 0 0 0 0 0 0 0 0 0 0 0 0 0 0 0 0 0 0 0 0 0 0 0 0 0 0 0 0 0 0 0 0 0 0 0 0 0 0 0 0 0 0 0 0 0 0 0 0 0 0 0 0 0 0 0 0 0 0 0 0 0 0 0 0 0 0 0 0 0 0 0 0 0 0 0 0 0 0 0 0 0 0 0 0 0 0 0 0 0 0 0 0 0 0 0 0 0 0 0 0 0 0 0 0 0 0 0 0 0 0 0 0 0 0 0 0 0 0 0 0 0 0 0 0 0 0 0 0 0 0 0 0 0 0 0 0 0 0 0 0 0 0 0 0 0 0 0 0 0 0 0 0 0 0 0 0 0 0 0 0 0 0 0 0 0 0 0 0 0 0 0 0 0 0 0 0 0 0 0 0 0 0 0 0 0 0 0 0 0 0 0 0 0 0 0 0 0 0 0 0 0 0 0 0 0 0 0 0 0 0 0 0 0 0 0 0 0 0 0 0 0 0 0 0 0 0 0 0 0 0 0 0 0 0 0 0 0 0 0 0 0 0 0 0 0 0 0 0 0 0 0 0 0 0 0 0 0 0 0 0 0 0 0 0 0 0 0 0 0 0 0 0 0 0 0 0 0 0 0 0 0 0 0 0 0 0 0 0 0 0 0 0 0 0 0 0 0 0 0 0 0 0 0 0 0 0 0 0 0 0 0 0 0 0 0 0 0 0 0 0 0 -0.0368347 -0.0406984 -0.0422464 -0.0442742 -0.0465881 -0.0483598 -0.0495293 -0.05014 -0.0502348 -0.0499715 -0.049466 -0.0486053 -0.0474473 -0.0461468 -0.0449212 -0.0440355 -0.0433796 -0.0425794 -0.0415323 -0.0404315 -0.0394168 -0.0385437 -0.0378242 -0.037226 -0.0367054 -0.0362558 -0.0359402 -0.0357533 -0.0356811 -0.0357667 -0.0360571 -0.03653 -0.0373082 -0.0383565 -0.0389399 -0.0394572 -0.0397893 -0.0402024 -0.0407646 -0.0413926 -0.0420362 -0.0426835 -0.0433203 -0.0439326 -0.0444355 -0.0447591 -0.0449889 -0.0455027 -0.0455661 -0.0460097 -0.046348 -0.0466078 -0.0468615 -0.0468485 -0.046888 -0.0466729 -0.0464761 -0.0461676 -0.0458009 -0.0454021 -0.0449633 -0.0445173 -0.0440808 -0.043653 -0.0432503 -0.0428777 -0.042535 -0.0422291 -0.0419585 -0.0417257 -0.0415294 -0.0413695 -0.0412444 -0.0411522 -0.0410905 -0.0410564 -0.0410468 -0.0410587 -0.0410888 -0.0411341 -0.0411914 -0.0412575 -0.0413295 -0.0414043 -0.041479 -0.0415507 -0.0416147 -0.0416641 -0.0416964 -0.0417202 -0.0417395 -0.0417523 -0.0417557 -0.0417475 -0.0417263 -0.0416912 -0.041642 -0.0415785 -0.0414997 -0.0414042 -0.0412896 -0.0411522 -0.0409868 -0.0407858 -0.0405371 -0.0402208 -0.0397988 -0.0392007 -0.0383223 -0.0370547 -0.0352794 -0.0328792 -0.0295677 -0.025141 -0.0193314 -0.0113992 -3.90313e-18 
0.02 0.0199999 0.0199998 0.0199997 0.0199996 0.0199994 0.0199992 0.019999 0.0199987 0.0199983 0.0199978 0.0199972 0.0199965 0.0199956 0.0199944 0.019993 0.0199914 0.0199893 0.019987 0.0199842 0.0199809 0.0199772 0.019973 0.0199683 0.0199631 0.0199573 0.0199509 0.019944 0.0199365 0.0199285 0.0199198 0.0199105 0.0199005 0.0198898 0.0198782 0.0198656 0.0198518 0.0198367 0.0198199 0.0198013 0.0197804 0.0197571 0.019731 0.0197017 0.0196689 0.0196324 0.0195917 0.0195465 0.0194964 0.0194409 0.0193796 0.0193118 0.0192366 0.0191532 0.0190605 0.0189571 0.0188417 0.0187128 0.0185687 0.0184078 0.0182277 0.0180262 0.0178003 0.0175469 0.0172625 0.0169434 0.0165857 0.0161855 0.0157392 0.0152435 0.0146963 0.0140967 0.0134459 0.0127486 0.0120131 0.0112526 0.0104853 0.00973412 0.00902505 0.00838403 0.00783134 0.00737127 0.00697611 0.00657153 0.006031 0.00518529 0.00384645 0.00177992 -0.00122744 -0.00547561 -0.0107853 -0.0186223 -0.0274494 -0.0312988 0 0 0 0 0 0 0 0 0 0 0 0 0 0 0 0 0 0 0 0 0 0 0 0 0 0 0 0 0 0 0 0 0 0 0 0 0 0 0 0 0 0 0 0 0 0 0 0 0 0 0 0 0 0 0 0 0 0 0 0 0 0 0 0 0 0 0 0 0 0 0 0 0 0 0 0 0 0 0 0 0 0 0 0 0 0 0 0 0 0 0 0 0 0 0 0 0 0 0 0 0 0 0 0 0 0 0 0 0 0 0 0 0 0 0 0 0 0 0 0 0 0 0 0 0 0 0 0 0 0 0 0 0 0 0 0 0 0 0 0 0 0 0 0 0 0 0 0 0 0 0 0 0 0 0 0 0 0 0 0 0 0 0 0 0 0 0 0 0 0 0 0 0 0 0 0 0 0 0 0 0 0 0 0 0 0 0 0 0 0 0 0 0 0 0 0 0 0 0 0 0 0 0 0 0 0 0 0 0 0 0 0 0 0 0 0 0 0 0 0 0 0 0 0 0 0 0 0 0 0 0 0 0 0 0 0 0 0 0 0 0 0 0 0 0 0 0 0 0 0 0 0 0 0 0 0 0 0 0 0 0 0 0 0 0 0 0 0 0 0 0 0 0 0 0 0 0 0 0 0 0 0 0 0 0 0 0 0 0 0 0 0 0 0 0 0 0 0 0 0 0 0 0 0 0 0 0 0 0 0 0 0 0 0 0 0 0 0 0 0 0 0 0 0 0 0 0 0 0 0 0 0 0 0 0 0 0 0 0 0 0 0 0 0 0 0 0 0 0 0 0 0 0 0 0 0 0 0 0 0 0 0 0 0 0 0 0 0 0 0 0 0 0 0 0 0 0 0 0 0 0 0 0 0 0 0 0 0 0 0 0 0 0 0 0 0 0 0 0 0 0 0 0 0 0 0 0 0 -0.0391283 -0.0422841 -0.0416784 -0.0428571 -0.0440336 -0.0451239 -0.0465889 -0.0478914 -0.0487266 -0.0492063 -0.049296 -0.0491144 -0.048634 -0.047817 -0.0467659 -0.0456423 -0.0445848 -0.0436956 -0.0429472 -0.0422076 -0.0413694 -0.0404532 -0.0395491 -0.0387288 -0.0380272 -0.0374366 -0.0369328 -0.0365124 -0.0361994 -0.0360049 -0.0359386 -0.0360577 -0.0364172 -0.0369726 -0.037582 -0.0382891 -0.0388336 -0.039255 -0.0397096 -0.040227 -0.040797 -0.0414094 -0.0420376 -0.0426675 -0.0432868 -0.0438825 -0.0444301 -0.0448816 -0.0451827 -0.0454515 -0.0457294 -0.0458978 -0.0461415 -0.0463437 -0.0465334 -0.0465941 -0.046608 -0.0464886 -0.0463058 -0.0460418 -0.0457065 -0.0453255 -0.0449153 -0.0444895 -0.0440684 -0.0436579 -0.0432669 -0.0429052 -0.0425709 -0.0422721 -0.0420068 -0.0417782 -0.0415849 -0.0414269 -0.0413024 -0.04121 -0.041147 -0.0411107 -0.0410981 -0.0411061 -0.0411315 -0.0411712 -0.0412223 -0.0412817 -0.0413463 -0.0414134 -0.0414802 -0.041544 -0.0416016 -0.0416487 -0.0416824 -0.0417051 -0.0417189 -0.0417239 -0.0417191 -0.041703 -0.0416747 -0.0416338 -0.0415799 -0.0415127 -0.0414313 -0.0413342 -0.0412189 -0.0410815 -0.0409167 -0.0407162 -0.0404671 -0.0401462 -0.0397119 -0.039097 -0.0382124 -0.0369602 -0.0352242 -0.03286 -0.0296594 -0.0253968 -0.0196832 -0.0116799 0 
0.02 0.0199999 0.0199999 0.0199998 0.0199996 0.0199995 0.0199993 0.0199991 0.0199988 0.0199985 0.0199981 0.0199975 0.0199969 0.0199961 0.019995 0.0199938 0.0199922 0.0199904 0.0199882 0.0199856 0.0199826 0.0199792 0.0199753 0.0199708 0.0199659 0.0199605 0.0199545 0.019948 0.019941 0.0199334 0.0199253 0.0199166 0.0199073 0.0198973 0.0198866 0.0198749 0.0198621 0.019848 0.0198325 0.0198151 0.0197958 0.0197741 0.0197497 0.0197224 0.0196919 0.0196578 0.0196197 0.0195775 0.0195305 0.0194786 0.019421 0.0193571 0.0192863 0.0192075 0.0191196 0.0190215 0.0189119 0.0187892 0.0186519 0.0184984 0.0183267 0.0181345 0.0179192 0.0176777 0.0174065 0.0171021 0.0167606 0.0163782 0.015951 0.0154757 0.0149495 0.0143707 0.0137389 0.0130563 0.0123275 0.0115605 0.0107669 0.00996206 0.00916485 0.00839593 0.00767383 0.0070069 0.00637931 0.00573471 0.00496787 0.00392666 0.00241989 0.000231715 -0.00285517 -0.00704808 -0.0125789 -0.0194812 -0.029044 -0.0433742 0 0 0 0 0 0 0 0 0 0 0 0 0 0 0 0 0 0 0 0 0 0 0 0 0 0 0 0 0 0 0 0 0 0 0 0 0 0 0 0 0 0 0 0 0 0 0 0 0 0 0 0 0 0 0 0 0 0 0 0 0 0 0 0 0 0 0 0 0 0 0 0 0 0 0 0 0 0 0 0 0 0 0 0 0 0 0 0 0 0 0 0 0 0 0 0 0 0 0 0 0 0 0 0 0 0 0 0 0 0 0 0 0 0 0 0 0 0 0 0 0 0 0 0 0 0 0 0 0 0 0 0 0 0 0 0 0 0 0 0 0 0 0 0 0 0 0 0 0 0 0 0 0 0 0 0 0 0 0 0 0 0 0 0 0 0 0 0 0 0 0 0 0 0 0 0 0 0 0 0 0 0 0 0 0 0 0 0 0 0 0 0 0 0 0 0 0 0 0 0 0 0 0 0 0 0 0 0 0 0 0 0 0 0 0 0 0 0 0 0 0 0 0 0 0 -0.0735719 -0.0716345 -0.078666 -0.0866351 -0.103939 0 0 0 0 0 0 0 0 0 0 0 0 0 0 0 0 0 0 0 0 0 0 0 0 0 0 0 0 0 0 0 0 0 0 0 0 0 0 0 0 0 0 0 0 0 0 0 0 0 0 0 0 0 0 0 0 0 0 0 0 0 0 0 0 0 0 0 0 0 0 0 0 0 0 0 0 0 0 0 0 0 0 0 0 0 0 0 0 0 0 0 0 0 0 0 0 0 0 0 0 0 0 0 0 0 0 0 0 0 0 0 0 0 0 0 0 0 0 0 0 0 0 0 0 0 0 0 0 0 0 0 0 0 0 0 0 0 0 0 0 0 0 0 0 0 0 0 0 0 0 0 0 0 0 0 0 0 0 0 0 0 0 0 0 0 0 0 0 0 0 0 0 0 0 0 0 0 -0.0387097 -0.0385389 -0.0426719 -0.0435616 -0.0440435 -0.0448119 -0.0454968 -0.0462712 -0.0471153 -0.0477178 -0.0480578 -0.0481802 -0.0480616 -0.0476301 -0.0469151 -0.0460181 -0.0450648 -0.0441449 -0.0433099 -0.0425679 -0.04188 -0.0411703 -0.0404062 -0.0396285 -0.0388922 -0.0382356 -0.0376684 -0.037184 -0.0367846 -0.036485 -0.036306 -0.0362658 -0.0364035 -0.0367529 -0.0372734 -0.0378386 -0.0383393 -0.0388066 -0.0392608 -0.0397432 -0.0402722 -0.0408398 -0.041435 -0.0420444 -0.0426543 -0.043253 -0.043829 -0.0443691 -0.0448499 -0.0452326 -0.0455058 -0.0457177 -0.0458931 -0.0460057 -0.0461486 -0.0462642 -0.0463329 -0.0463402 -0.0462673 -0.0461133 -0.0458813 -0.0455817 -0.0452303 -0.0448509 -0.0444527 -0.0440536 -0.0436643 -0.0432903 -0.0429424 -0.0426198 -0.04233 -0.0420719 -0.0418485 -0.0416587 -0.0415026 -0.0413786 -0.0412852 -0.0412199 -0.0411802 -0.0411629 -0.0411651 -0.0411837 -0.0412158 -0.0412585 -0.0413087 -0.0413637 -0.0414209 -0.0414777 -0.0415317 -0.0415805 -0.0416213 -0.0416517 -0.0416708 -0.0416796 -0.0416783 -0.0416665 -0.0416435 -0.0416089 -0.0415626 -0.0415042 -0.0414336 -0.0413497 -0.0412509 -0.0411348 -0.0409974 -0.040833 -0.0406327 -0.040382 -0.0400556 -0.0396111 -0.0389863 -0.0381018 -0.0368652 -0.0351636 -0.0328564 -0.0297584 -0.0256117 -0.0199488 -0.0118792 -1.0842e-18 