# vtk DataFile Version 2.0
iteration 1782
ASCII

DATASET STRUCTURED_POINTS
DIMENSIONS 621 64 1
ORIGIN 0 0 0
SPACING 0.00161031 0.00161031 0.00161031

POINT_DATA 39744
SCALARS P float 1
LOOKUP_TABLE default
0 0 0 0 0 0 0 0 0 0 0 0 0 0 0 0 0 0 0 0 0 0 0 0 0 0 0 0 0 0 0 0 0 0 0 0 0 0 0 0 0 0 0 0 0 0 0 0 0 0 0 0 0 0 0 0 0 0 0 0 0 0 0 0 0 0 0 0 0 0 0 0 0 0 0 0 0 0 0 0 0 0 0 0 0 0 0 0 0 0 0 0 0 0 0 0 0 0 0 0 0 0 0 0 0 0 0 0 0 0 0 0 0 0 0 0 0 0 0 0 0 0 0 0 0 0 0 0 0 0 0 0 0 0 0 0 0 0 0 0 0 0 0 0 0 0 0 0 0 0 0 0 0 0 0 0 0 0 0 0 0 0 0 0 0 0 0 0 0 0 0 0 0 0 0 0 0 0 0 0 0 0 0 0 0 0 0 0 0 0 0 0 0 0 0 0 0 0 0 0 0 0 0 0 0 0 0 0 0 0 0 0 0 0 0 0 0 0 0 0 0 0 0 0 0 0 0 0 0 0 0 0 0 0 0 0 0 0 0 0 0 0 0 0 0 0 0 0 0 0 0 0 0 0 0 0 0 0 0 0 0 0 0 0 0 0 0 0 0 0 0 0 0 0 0 0 0 0 0 0 0 0 0 0 0 0 0 0 0 0 0 0 0 0 0 0 0 0 0 0 0 0 0 0 0 0 0 0 0 0 0 0 0 0 0 0 0 0 0 0 0 0 0 0 0 0 0 0 0 0 0 0 0 0 0 0 0 0 0 0 0 0 0 0 0 0 0 0 0 0 0 0 0 0 0 0 0 0 0 0 0 0 0 0 0 0 0 0 0 0 0 0 0 0 0 0 0 0 0 0 0 0 0 0 0 0 0 0 0 0 0 0 0 0 0 0 0 0 0 0 0 0 0 0 0 0 0 0 0 0 0 0 0 0 0 0 0 0 0 0 0 0 0 0 0 0 0 0 0 0 0 0 0 0 0 0 0 0 0 0 0 0 0 0 0 0 0 0 0 0 0 0 0 0 0 0 0 0 0 0 0 0 0 0 0 0 0 0 0 0 0 0 0 0 0 0 0 0 0 0 0 0 0 0 0 0 0 0 0 0 0 0 0 0 0 0 0 0 0 0 0 0 0 0 0 0 0 0 0 0 0 0 0 0 0 0 0 0 0 0 0 0 0 0 0 0 0 0 0 0 0 0 0 0 0 0 0 0 0 0 0 0 0 0 0 0 0 0 0 0 0 0 0 0 0 0 0 0 0 0 0 0 0 0 0 0 0 0 0 0 0 0 0 0 0 0 0 0 0 0 0 0 0 0 0 0 0 0 0 0 0 0 0 0 0 0 0 0 0 0 0 0 0 0 0 0 0 0 0 0 0 0 0 0 0 0 0 0 0 0 0 
0.02 0.02 0.02 0.02 0.02 0.02 0.02 0.02 0.02 0.02 0.02 0.02 0.02 0.02 0.02 0.02 0.02 0.02 0.02 0.02 0.02 0.02 0.02 0.02 0.02 0.02 0.02 0.02 0.02 0.02 0.02 0.02 0.02 0.02 0.02 0.02 0.02 0.02 0.02 0.02 0.02 0.02 0.02 0.02 0.02 0.02 0.02 0.02 0.02 0.02 0.02 0.02 0.02 0.02 0.02 0.02 0.02 0.02 0.02 0.02 0.02 0.02 0.02 0.02 0.02 0.02 0.02 0.02 0.02 0.02 0.02 0.02 0.02 0.02 0.02 0.02 0.02 0.02 0.02 0.02 0.02 0.02 0.02 0.02 0.02 0.02 0.02 0.02 0.02 0.02 0.02 0.02 0.02 0.02 0.02 0.02 0.02 0.02 0.02 0.02 0.02 0.02 0.02 0.02 0.02 0.02 0.02 0.02 0.02 0.02 0.02 0.02 0.02 0.02 0.02 0.02 0.02 0.02 0.02 0.02 0.02 0.02 0.02 0.02 0.02 0.02 0.02 0.0199999 0.0199999 0.0199999 0.0199999 0.0199999 0.0199999 0.0199999 0.0199999 0.0199999 0.0199999 0.0199999 0.0199999 0.0199998 0.0199998 0.0199998 0.0199998 0.0199998 0.0199997 0.0199997 0.0199997 0.0199997 0.0199996 0.0199996 0.0199996 0.0199995 0.0199995 0.0199994 0.0199994 0.0199993 0.0199993 0.0199992 0.0199992 0.0199991 0.019999 0.0199989 0.0199989 0.0199988 0.0199987 0.0199986 0.0199984 0.0199983 0.0199982 0.0199981 0.0199979 0.0199978 0.0199976 0.0199974 0.0199972 0.019997 0.0199968 0.0199966 0.0199964 0.0199961 0.0199959 0.0199956 0.0199954 0.0199951 0.0199948 0.0199945 0.0199942 0.0199938 0.0199935 0.0199931 0.0199928 0.0199924 0.0199921 0.0199917 0.0199913 0.0199909 0.0199906 0.0199902 0.0199898 0.0199895 0.0199891 0.0199888 0.0199885 0.0199882 0.019988 0.0199878 0.0199876 0.0199874 0.0199874 0.0199873 0.0199873 0.0199874 0.0199876 0.0199878 0.0199882 0.0199886 0.0199892 0.0199898 0.0199906 0.0199915 0.0199925 0.0199937 0.019995 0.0199965 0.0199982 0.0200001 0.0200021 0.0200044 0.0200068 0.0200095 0.0200124 0.0200155 0.0200189 0.0200225 0.0200264 0.0200305 0.0200349 0.0200396 0.0200446 0.0200498 0.0200553 0.0200611 0.0200672 0.0200736 0.0200803 0.0200873 0.0200945 0.0201021 0.0201099 0.020118 0.0201264 0.020135 0.0201439 0.0201531 0.0201625 0.0201722 0.0201821 0.0201922 0.0202026 0.0202131 0.0202238 0.0202347 0.0202458 0.020257 0.0202683 0.0202797 0.0202912 0.0203028 0.0203145 0.0203262 0.0203379 0.0203496 0.0203613 0.0203729 0.0203844 0.0203959 0.0204072 0.0204184 0.0204294 0.0204403 0.0204509 0.0204613 0.0204715 0.0204814 0.020491 0.0205002 0.0205092 0.0205178 0.020526 0.0205338 0.0205413 0.0205483 0.020555 0.0205611 0.0205669 0.0205722 0.0205771 0.0205815 0.0205854 0.0205889 0.020592 0.0205946 0.0205968 0.0205986 0.0205999 0.0206009 0.0206015 0.0206017 0.0206016 0.0206011 0.0206004 0.0205993 0.0205981 0.0205966 0.0205948 0.020593 0.0205909 0.0205888 0.0205865 0.0205842 0.0205818 0.0205794 0.020577 0.0205747 0.0205723 0.0205701 0.020568 0.0205659 0.020564 0.0205622 0.0205605 0.0205591 0.0205577 0.0205566 0.0205556 0.0205547 0.0205541 0.0205536 0.0205532 0.020553 0.020553 0.0205531 0.0205533 0.0205536 0.020554 0.0205544 0.0205549 0.0205555 0.0205561 0.0205566 0.0205572 0.0205577 0.0205582 0.0205586 0.0205589 0.0205591 0.0205591 0.020559 0.0205588 0.0205584 0.0205579 0.0205571 0.0205561 0.020555 0.0205536 0.020552 0.0205501 0.0205481 0.0205458 0.0205433 0.0205405 0.0205375 0.0205342 0.0205307 0.020527 0.0205229 0.0205185 0.0205137 0.0205083 0.0205019 0.0204946 0.0204869 0.0204806 0.0204756 0.0204705 0.0204653 0.0204598 0.0204541 0.0204479 0.0204413 0.020434 0.0204259 0.0204168 0.0204066 0.0203949 0.0203815 0.0203663 0.0203489 0.020329 0.0203065 0.0202809 0.0202521 0.0202198 0.0201836 0.020143 0.0200978 0.0200474 0.019991 0.0199279 0.0198569 0.0197768 0.0196861 0.0195828 0.019465 0.0193306 0.0191773 0.0190033 0.0188064 0.0185848 0.0183361 0.0180579 0.0177471 0.0174005 0.0170139 0.0165826 0.0161046 0.015579 0.0150061 0.0143932 0.0137165 0.0130865 0.0124474 0.0125451 0.0132402 0.0110559 0 0 0 0 0 0 0 0 0 0 0 0 0 0 0 0 0 0 0 0 0 0 0 0 0 0 0 0 0 0 0 0 0 0 0 0 0 0 0 0 0 0 0 0 0 0 0 0 0 0 0 0 0 0 0 0 0 0 0 0 0 0 0 0 0 0 0 0 0 0 0 0 0 0 0 0 0 0 0 0 0 0 0 0 0 0 0 0 0 0 0 0 0 0 0 0 0 0 0 0 0 0 0 0 0 0 0 0 0 0 0 0 0 0 0 0 0 0 0 0 0 0 0 0 0 0 0 0 0 0 0 0 0 0 0 0 0 0 0 0 0 0 0 0 0 0 0 0 0 0 0 0 0 0 0 0 0 0 0 0 0 0 0 0 0 0 0 0 0 0 0 0 0 0 0 0 0 0 0 0 0 0 0 0 0 0 
0.02 0.02 0.02 0.02 0.02 0.02 0.02 0.02 0.02 0.02 0.02 0.02 0.02 0.02 0.02 0.02 0.02 0.02 0.02 0.02 0.02 0.02 0.02 0.02 0.02 0.02 0.02 0.02 0.02 0.02 0.02 0.02 0.02 0.02 0.02 0.02 0.02 0.02 0.02 0.02 0.02 0.02 0.02 0.02 0.02 0.02 0.02 0.02 0.02 0.02 0.02 0.02 0.02 0.02 0.02 0.02 0.02 0.02 0.02 0.02 0.02 0.02 0.02 0.02 0.02 0.02 0.02 0.02 0.02 0.02 0.02 0.02 0.02 0.02 0.02 0.02 0.02 0.02 0.02 0.02 0.02 0.02 0.02 0.02 0.02 0.02 0.02 0.02 0.02 0.02 0.02 0.02 0.02 0.02 0.02 0.02 0.02 0.02 0.02 0.02 0.02 0.02 0.02 0.02 0.02 0.02 0.02 0.02 0.02 0.02 0.02 0.02 0.02 0.02 0.02 0.02 0.02 0.02 0.02 0.02 0.02 0.02 0.02 0.02 0.02 0.02 0.02 0.02 0.0199999 0.0199999 0.0199999 0.0199999 0.0199999 0.0199999 0.0199999 0.0199999 0.0199999 0.0199999 0.0199999 0.0199998 0.0199998 0.0199998 0.0199998 0.0199998 0.0199998 0.0199997 0.0199997 0.0199997 0.0199996 0.0199996 0.0199996 0.0199995 0.0199995 0.0199995 0.0199994 0.0199994 0.0199993 0.0199992 0.0199992 0.0199991 0.019999 0.019999 0.0199989 0.0199988 0.0199987 0.0199986 0.0199985 0.0199983 0.0199982 0.0199981 0.0199979 0.0199978 0.0199976 0.0199975 0.0199973 0.0199971 0.0199969 0.0199967 0.0199964 0.0199962 0.019996 0.0199957 0.0199954 0.0199951 0.0199948 0.0199945 0.0199942 0.0199939 0.0199936 0.0199932 0.0199929 0.0199925 0.0199921 0.0199918 0.0199914 0.019991 0.0199907 0.0199903 0.0199899 0.0199896 0.0199892 0.0199889 0.0199886 0.0199883 0.0199881 0.0199878 0.0199877 0.0199875 0.0199874 0.0199874 0.0199874 0.0199875 0.0199877 0.0199879 0.0199882 0.0199887 0.0199892 0.0199898 0.0199906 0.0199915 0.0199925 0.0199937 0.019995 0.0199965 0.0199981 0.02 0.020002 0.0200042 0.0200067 0.0200093 0.0200122 0.0200153 0.0200186 0.0200222 0.020026 0.0200302 0.0200345 0.0200392 0.0200441 0.0200493 0.0200548 0.0200606 0.0200666 0.020073 0.0200796 0.0200865 0.0200938 0.0201013 0.020109 0.0201171 0.0201254 0.020134 0.0201429 0.020152 0.0201614 0.0201711 0.0201809 0.020191 0.0202013 0.0202118 0.0202225 0.0202334 0.0202444 0.0202556 0.0202669 0.0202783 0.0202898 0.0203014 0.0203131 0.0203248 0.0203365 0.0203482 0.0203599 0.0203715 0.0203831 0.0203946 0.0204059 0.0204172 0.0204282 0.0204391 0.0204498 0.0204603 0.0204705 0.0204805 0.0204901 0.0204995 0.0205085 0.0205172 0.0205255 0.0205335 0.0205411 0.0205482 0.020555 0.0205613 0.0205671 0.0205726 0.0205776 0.0205821 0.0205862 0.0205899 0.0205931 0.0205959 0.0205982 0.0206001 0.0206016 0.0206027 0.0206035 0.0206038 0.0206038 0.0206035 0.0206029 0.020602 0.0206008 0.0205994 0.0205978 0.020596 0.0205941 0.020592 0.0205898 0.0205875 0.0205852 0.0205828 0.0205804 0.0205781 0.0205758 0.0205735 0.0205713 0.0205693 0.0205673 0.0205654 0.0205637 0.0205621 0.0205607 0.0205594 0.0205583 0.0205573 0.0205565 0.0205559 0.0205554 0.020555 0.0205548 0.0205547 0.0205547 0.0205549 0.0205551 0.0205554 0.0205557 0.0205561 0.0205564 0.0205568 0.0205572 0.0205575 0.0205578 0.0205581 0.0205582 0.0205582 0.0205581 0.0205579 0.0205575 0.020557 0.0205563 0.0205554 0.0205543 0.020553 0.0205515 0.0205497 0.0205478 0.0205456 0.0205432 0.0205405 0.0205376 0.0205345 0.020531 0.0205273 0.0205233 0.0205189 0.0205142 0.0205089 0.0205032 0.0204972 0.0204905 0.0204843 0.0204792 0.0204741 0.0204689 0.0204636 0.020458 0.0204521 0.0204459 0.0204391 0.0204318 0.0204236 0.0204145 0.0204042 0.0203925 0.0203791 0.0203639 0.0203466 0.0203269 0.0203045 0.0202792 0.0202506 0.0202186 0.0201826 0.0201424 0.0200976 0.0200475 0.0199914 0.0199287 0.0198581 0.0197784 0.019688 0.019585 0.0194676 0.0193335 0.0191807 0.0190071 0.0188107 0.0185897 0.0183416 0.018064 0.0177543 0.0174094 0.0170255 0.0165985 0.0161252 0.0156093 0.0150532 0.0144801 0.0138867 0.0132593 0.0125379 0.0120888 0.0119737 0.0105836 0.00894083 0.00742281 0.00597636 0.00448433 0.00300191 0.00147949 0.000505264 0 0 0 0 0 0 0 0 0 0 0 0 0 0 0 0 0 0 0 0 0 0 0 0 0 0 0 0 0 0 0 0 0 0 0 0 0 0 0 0 0 0 0 0 0 0 0 0 0 0 0 0 0 0 0 0 0 0 0 0 0 0 0 0 0 0 0 0 0 0 0 0 0 0 0 0 0 0 0 0 0 0 0 0 0 0 0 0 0 0 0 0 0 0 0 0 0 0 0 0 0 0 0 0 0 0 0 0 0 0 0 0 0 0 0 0 0 0 0 0 0 0 0 0 0 0 0 0 0 0 0 0 0 0 0 0 0 0 0 0 0 0 0 0 0 0 0 0 0 0 0 0 0 0 0 0 0 0 0 0 0 0 0 0 0 0 0 0 0 0 0 0 0 0 0 0 0 0 0 
0.02 0.02 0.02 0.02 0.02 0.02 0.02 0.02 0.02 0.02 0.02 0.02 0.02 0.02 0.02 0.02 0.02 0.02 0.02 0.02 0.02 0.02 0.02 0.02 0.02 0.02 0.02 0.02 0.02 0.02 0.02 0.02 0.02 0.02 0.02 0.02 0.02 0.02 0.02 0.02 0.02 0.02 0.02 0.02 0.02 0.02 0.02 0.02 0.02 0.02 0.02 0.02 0.02 0.02 0.02 0.02 0.02 0.02 0.02 0.02 0.02 0.02 0.02 0.02 0.02 0.02 0.02 0.02 0.02 0.02 0.02 0.02 0.02 0.02 0.02 0.02 0.02 0.02 0.02 0.02 0.02 0.02 0.02 0.02 0.02 0.02 0.02 0.02 0.02 0.02 0.02 0.02 0.02 0.02 0.02 0.02 0.02 0.02 0.02 0.02 0.02 0.02 0.02 0.02 0.02 0.02 0.02 0.02 0.02 0.02 0.02 0.02 0.02 0.02 0.02 0.02 0.02 0.02 0.02 0.02 0.02 0.02 0.02 0.02 0.02 0.02 0.02 0.02 0.0199999 0.0199999 0.0199999 0.0199999 0.0199999 0.0199999 0.0199999 0.0199999 0.0199999 0.0199999 0.0199999 0.0199998 0.0199998 0.0199998 0.0199998 0.0199998 0.0199998 0.0199997 0.0199997 0.0199997 0.0199997 0.0199996 0.0199996 0.0199996 0.0199995 0.0199995 0.0199994 0.0199994 0.0199993 0.0199993 0.0199992 0.0199991 0.0199991 0.019999 0.0199989 0.0199988 0.0199987 0.0199986 0.0199985 0.0199984 0.0199983 0.0199981 0.019998 0.0199978 0.0199977 0.0199975 0.0199973 0.0199971 0.0199969 0.0199967 0.0199965 0.0199963 0.019996 0.0199958 0.0199955 0.0199952 0.0199949 0.0199946 0.0199943 0.019994 0.0199936 0.0199933 0.019993 0.0199926 0.0199922 0.0199919 0.0199915 0.0199911 0.0199908 0.0199904 0.01999 0.0199897 0.0199894 0.019989 0.0199887 0.0199884 0.0199882 0.019988 0.0199878 0.0199876 0.0199875 0.0199875 0.0199875 0.0199876 0.0199878 0.019988 0.0199883 0.0199887 0.0199893 0.0199899 0.0199906 0.0199915 0.0199925 0.0199937 0.019995 0.0199965 0.0199981 0.0199999 0.0200019 0.0200041 0.0200066 0.0200092 0.020012 0.0200151 0.0200184 0.0200219 0.0200258 0.0200298 0.0200342 0.0200388 0.0200436 0.0200488 0.0200542 0.02006 0.020066 0.0200723 0.0200789 0.0200857 0.0200929 0.0201003 0.020108 0.020116 0.0201243 0.0201329 0.0201417 0.0201508 0.0201601 0.0201697 0.0201795 0.0201895 0.0201997 0.0202102 0.0202208 0.0202316 0.0202426 0.0202537 0.020265 0.0202764 0.0202879 0.0202994 0.020311 0.0203227 0.0203344 0.0203461 0.0203577 0.0203694 0.0203809 0.0203924 0.0204038 0.0204151 0.0204262 0.0204371 0.0204478 0.0204583 0.0204686 0.0204787 0.0204884 0.0204978 0.020507 0.0205158 0.0205242 0.0205323 0.02054 0.0205473 0.0205541 0.0205606 0.0205666 0.0205723 0.0205774 0.0205822 0.0205864 0.0205903 0.0205937 0.0205967 0.0205992 0.0206013 0.0206031 0.0206044 0.0206053 0.0206059 0.0206061 0.020606 0.0206056 0.0206049 0.0206039 0.0206027 0.0206013 0.0205996 0.0205979 0.0205959 0.0205939 0.0205917 0.0205895 0.0205872 0.020585 0.0205827 0.0205804 0.0205782 0.0205761 0.020574 0.020572 0.0205701 0.0205684 0.0205667 0.0205652 0.0205639 0.0205626 0.0205616 0.0205607 0.0205599 0.0205592 0.0205587 0.0205583 0.0205581 0.0205579 0.0205579 0.0205579 0.0205579 0.0205581 0.0205582 0.0205584 0.0205586 0.0205587 0.0205589 0.0205589 0.0205589 0.0205589 0.0205587 0.0205584 0.0205579 0.0205574 0.0205566 0.0205557 0.0205546 0.0205533 0.0205518 0.0205501 0.0205482 0.0205461 0.0205437 0.0205411 0.0205382 0.020535 0.0205316 0.0205279 0.0205239 0.0205195 0.0205149 0.0205099 0.0205045 0.020499 0.0204932 0.0204875 0.0204823 0.0204773 0.0204721 0.0204668 0.0204613 0.0204556 0.0204496 0.0204432 0.0204363 0.0204289 0.0204206 0.0204114 0.020401 0.0203893 0.020376 0.0203609 0.0203436 0.0203241 0.0203019 0.0202768 0.0202485 0.0202167 0.020181 0.0201411 0.0200965 0.0200467 0.0199909 0.0199283 0.0198578 0.0197782 0.0196878 0.0195848 0.0194672 0.0193329 0.01918 0.0190063 0.0188099 0.0185891 0.0183415 0.0180649 0.0177567 0.0174143 0.0170346 0.0166155 0.0161564 0.0156678 0.0151526 0.0146315 0.0140879 0.0134936 0.0128676 0.0120625 0.0114857 0.0102732 0.00889129 0.00744179 0.00601368 0.00452945 0.00304034 0.00151156 -0.000137109 -0.00226609 -0.00496548 -0.00751099 0 0 0 0 0 0 0 0 0 0 0 0 0 0 0 0 0 0 0 0 0 0 0 0 0 0 0 0 0 0 0 0 0 0 0 0 0 0 0 0 0 0 0 0 0 0 0 0 0 0 0 0 0 0 0 0 0 0 0 0 0 0 0 0 0 0 0 0 0 0 0 0 0 0 0 0 0 0 0 0 0 0 0 0 0 0 0 0 0 0 0 0 0 0 0 0 0 0 0 0 0 0 0 0 0 0 0 0 0 0 0 0 0 0 0 0 0 0 0 0 0 0 0 0 0 0 0 0 0 0 0 0 0 0 0 0 0 0 0 0 0 0 0 0 0 0 0 0 0 0 0 0 0 0 0 0 0 0 0 0 0 0 0 0 0 0 0 0 0 0 0 0 0 0 0 -4.33681e-19 
0.02 0.02 0.02 0.02 0.02 0.02 0.02 0.02 0.02 0.02 0.02 0.02 0.02 0.02 0.02 0.02 0.02 0.02 0.02 0.02 0.02 0.02 0.02 0.02 0.02 0.02 0.02 0.02 0.02 0.02 0.02 0.02 0.02 0.02 0.02 0.02 0.02 0.02 0.02 0.02 0.02 0.02 0.02 0.02 0.02 0.02 0.02 0.02 0.02 0.02 0.02 0.02 0.02 0.02 0.02 0.02 0.02 0.02 0.02 0.02 0.02 0.02 0.02 0.02 0.02 0.02 0.02 0.02 0.02 0.02 0.02 0.02 0.02 0.02 0.02 0.02 0.02 0.02 0.02 0.02 0.02 0.02 0.02 0.02 0.02 0.02 0.02 0.02 0.02 0.02 0.02 0.02 0.02 0.02 0.02 0.02 0.02 0.02 0.02 0.02 0.02 0.02 0.02 0.02 0.02 0.02 0.02 0.02 0.02 0.02 0.02 0.02 0.02 0.02 0.02 0.02 0.02 0.02 0.02 0.02 0.02 0.02 0.02 0.02 0.02 0.02 0.02 0.02 0.0199999 0.0199999 0.0199999 0.0199999 0.0199999 0.0199999 0.0199999 0.0199999 0.0199999 0.0199999 0.0199999 0.0199999 0.0199998 0.0199998 0.0199998 0.0199998 0.0199998 0.0199997 0.0199997 0.0199997 0.0199997 0.0199996 0.0199996 0.0199996 0.0199995 0.0199995 0.0199994 0.0199994 0.0199993 0.0199993 0.0199992 0.0199992 0.0199991 0.019999 0.0199989 0.0199988 0.0199987 0.0199986 0.0199985 0.0199984 0.0199983 0.0199982 0.019998 0.0199979 0.0199977 0.0199976 0.0199974 0.0199972 0.019997 0.0199968 0.0199966 0.0199963 0.0199961 0.0199958 0.0199956 0.0199953 0.019995 0.0199947 0.0199944 0.0199941 0.0199938 0.0199934 0.0199931 0.0199927 0.0199924 0.019992 0.0199916 0.0199913 0.0199909 0.0199906 0.0199902 0.0199898 0.0199895 0.0199892 0.0199889 0.0199886 0.0199884 0.0199881 0.019988 0.0199878 0.0199877 0.0199877 0.0199877 0.0199878 0.0199879 0.0199882 0.0199885 0.0199889 0.0199894 0.01999 0.0199908 0.0199916 0.0199926 0.0199938 0.0199951 0.0199965 0.0199981 0.0199999 0.0200019 0.0200041 0.0200065 0.0200091 0.0200119 0.0200149 0.0200182 0.0200217 0.0200255 0.0200295 0.0200338 0.0200383 0.0200431 0.0200482 0.0200536 0.0200593 0.0200652 0.0200715 0.020078 0.0200848 0.0200918 0.0200992 0.0201069 0.0201148 0.020123 0.0201314 0.0201402 0.0201492 0.0201584 0.0201679 0.0201776 0.0201876 0.0201977 0.0202081 0.0202186 0.0202294 0.0202403 0.0202513 0.0202625 0.0202739 0.0202853 0.0202968 0.0203083 0.02032 0.0203316 0.0203433 0.0203549 0.0203665 0.0203781 0.0203896 0.020401 0.0204122 0.0204234 0.0204343 0.0204451 0.0204557 0.020466 0.0204761 0.020486 0.0204955 0.0205047 0.0205137 0.0205222 0.0205305 0.0205383 0.0205458 0.0205528 0.0205595 0.0205657 0.0205716 0.0205769 0.0205819 0.0205864 0.0205905 0.0205942 0.0205974 0.0206002 0.0206026 0.0206046 0.0206062 0.0206074 0.0206083 0.0206088 0.0206089 0.0206088 0.0206084 0.0206076 0.0206067 0.0206055 0.0206041 0.0206025 0.0206008 0.0205989 0.0205969 0.0205949 0.0205928 0.0205906 0.0205884 0.0205863 0.0205841 0.020582 0.02058 0.020578 0.0205761 0.0205743 0.0205726 0.020571 0.0205696 0.0205683 0.0205671 0.020566 0.0205651 0.0205643 0.0205636 0.020563 0.0205625 0.0205622 0.0205619 0.0205616 0.0205615 0.0205614 0.0205613 0.0205612 0.0205611 0.020561 0.0205609 0.0205607 0.0205604 0.0205601 0.0205596 0.020559 0.0205583 0.0205575 0.0205565 0.0205553 0.020554 0.0205525 0.0205507 0.0205488 0.0205466 0.0205442 0.0205416 0.0205387 0.0205356 0.0205322 0.0205285 0.0205245 0.0205203 0.0205158 0.020511 0.0205059 0.0205008 0.0204954 0.0204902 0.020485 0.0204799 0.0204747 0.0204694 0.0204639 0.0204582 0.0204523 0.0204461 0.0204395 0.0204324 0.0204247 0.0204163 0.0204069 0.0203964 0.0203846 0.0203713 0.0203561 0.0203389 0.0203195 0.0202974 0.0202725 0.0202444 0.0202129 0.0201775 0.0201379 0.0200935 0.0200439 0.0199883 0.0199258 0.0198554 0.0197758 0.0196853 0.0195821 0.0194644 0.01933 0.0191769 0.0190032 0.0188071 0.0185867 0.01834 0.0180651 0.01776 0.0174234 0.0170544 0.0166527 0.0162206 0.0157634 0.0152935 0.014802 0.0142977 0.0137289 0.0130257 0.0123007 0.011327 0.010147 0.00885638 0.00749111 0.00609306 0.00463891 0.00312394 0.00152159 -0.000319373 -0.00240138 -0.00451645 -0.00741571 -0.0109614 -0.0150593 0 0 0 0 0 0 0 0 0 0 0 0 0 0 0 0 0 0 0 0 0 0 0 0 0 0 0 0 0 0 0 0 0 0 0 0 0 0 0 0 0 0 0 0 0 0 0 0 0 0 0 0 0 0 0 0 0 0 0 0 0 0 0 0 0 0 0 0 0 0 0 0 0 0 0 0 0 0 0 0 0 0 0 0 0 0 0 0 0 0 0 0 0 0 0 0 0 0 0 0 0 0 0 0 0 0 0 0 0 0 0 0 0 0 0 0 0 0 0 0 0 0 0 0 0 0 0 0 0 0 0 0 0 0 0 0 0 0 0 0 0 0 0 0 0 0 0 0 0 0 0 0 0 0 0 0 0 0 0 0 0 0 0 0 0 0 0 0 0 0 0 0 0 -2.1684e-19 
0.02 0.02 0.02 0.02 0.02 0.02 0.02 0.02 0.02 0.02 0.02 0.02 0.02 0.02 0.02 0.02 0.02 0.02 0.02 0.02 0.02 0.02 0.02 0.02 0.02 0.02 0.02 0.02 0.02 0.02 0.02 0.02 0.02 0.02 0.02 0.02 0.02 0.02 0.02 0.02 0.02 0.02 0.02 0.02 0.02 0.02 0.02 0.02 0.02 0.02 0.02 0.02 0.02 0.02 0.02 0.02 0.02 0.02 0.02 0.02 0.02 0.02 0.02 0.02 0.02 0.02 0.02 0.02 0.02 0.02 0.02 0.02 0.02 0.02 0.02 0.02 0.02 0.02 0.02 0.02 0.02 0.02 0.02 0.02 0.02 0.02 0.02 0.02 0.02 0.02 0.02 0.02 0.02 0.02 0.02 0.02 0.02 0.02 0.02 0.02 0.02 0.02 0.02 0.02 0.02 0.02 0.02 0.02 0.02 0.02 0.02 0.02 0.02 0.02 0.02 0.02 0.02 0.02 0.02 0.02 0.02 0.02 0.02 0.02 0.02 0.02 0.02 0.02 0.02 0.0199999 0.0199999 0.0199999 0.0199999 0.0199999 0.0199999 0.0199999 0.0199999 0.0199999 0.0199999 0.0199999 0.0199998 0.0199998 0.0199998 0.0199998 0.0199998 0.0199998 0.0199997 0.0199997 0.0199997 0.0199996 0.0199996 0.0199996 0.0199995 0.0199995 0.0199995 0.0199994 0.0199994 0.0199993 0.0199992 0.0199992 0.0199991 0.019999 0.019999 0.0199989 0.0199988 0.0199987 0.0199986 0.0199985 0.0199983 0.0199982 0.0199981 0.0199979 0.0199978 0.0199976 0.0199974 0.0199973 0.0199971 0.0199969 0.0199966 0.0199964 0.0199962 0.0199959 0.0199957 0.0199954 0.0199951 0.0199948 0.0199945 0.0199942 0.0199939 0.0199936 0.0199932 0.0199929 0.0199925 0.0199922 0.0199918 0.0199915 0.0199911 0.0199907 0.0199904 0.0199901 0.0199897 0.0199894 0.0199891 0.0199888 0.0199886 0.0199884 0.0199882 0.019988 0.019988 0.0199879 0.0199879 0.019988 0.0199882 0.0199884 0.0199887 0.0199891 0.0199896 0.0199902 0.0199909 0.0199918 0.0199928 0.0199939 0.0199952 0.0199966 0.0199982 0.02 0.020002 0.0200041 0.0200065 0.020009 0.0200118 0.0200148 0.020018 0.0200215 0.0200252 0.0200291 0.0200333 0.0200378 0.0200426 0.0200476 0.0200529 0.0200585 0.0200644 0.0200705 0.0200769 0.0200836 0.0200906 0.0200979 0.0201055 0.0201133 0.0201214 0.0201297 0.0201384 0.0201472 0.0201564 0.0201658 0.0201754 0.0201852 0.0201953 0.0202055 0.020216 0.0202266 0.0202374 0.0202484 0.0202595 0.0202708 0.0202821 0.0202935 0.020305 0.0203166 0.0203282 0.0203398 0.0203514 0.020363 0.0203745 0.020386 0.0203974 0.0204087 0.0204198 0.0204308 0.0204417 0.0204523 0.0204627 0.0204729 0.0204829 0.0204925 0.0205019 0.020511 0.0205197 0.0205281 0.0205361 0.0205438 0.0205511 0.020558 0.0205645 0.0205705 0.0205762 0.0205814 0.0205863 0.0205906 0.0205946 0.0205982 0.0206013 0.020604 0.0206063 0.0206083 0.0206098 0.020611 0.0206118 0.0206123 0.0206125 0.0206124 0.020612 0.0206113 0.0206104 0.0206093 0.020608 0.0206065 0.0206049 0.0206031 0.0206012 0.0205993 0.0205973 0.0205952 0.0205932 0.0205911 0.020589 0.020587 0.0205851 0.0205831 0.0205813 0.0205796 0.0205779 0.0205764 0.0205749 0.0205736 0.0205724 0.0205712 0.0205702 0.0205693 0.0205685 0.0205678 0.0205672 0.0205666 0.0205661 0.0205657 0.0205653 0.0205649 0.0205645 0.0205641 0.0205637 0.0205632 0.0205627 0.0205621 0.0205615 0.0205607 0.0205598 0.0205588 0.0205577 0.0205564 0.0205549 0.0205533 0.0205515 0.0205495 0.0205473 0.0205448 0.0205422 0.0205393 0.0205361 0.0205328 0.0205292 0.0205253 0.0205212 0.0205168 0.0205123 0.0205075 0.0205026 0.0204976 0.0204925 0.0204874 0.0204822 0.0204769 0.0204715 0.0204659 0.0204601 0.0204541 0.0204479 0.0204414 0.0204345 0.0204272 0.0204192 0.0204105 0.0204009 0.0203901 0.0203781 0.0203646 0.0203494 0.0203322 0.0203127 0.0202907 0.0202659 0.020238 0.0202067 0.0201715 0.0201321 0.020088 0.0200386 0.0199831 0.0199208 0.0198504 0.0197708 0.0196803 0.0195771 0.0194594 0.019325 0.019172 0.0189987 0.0188033 0.0185843 0.0183401 0.0180692 0.0177708 0.0174452 0.0170934 0.0167164 0.0163157 0.0158943 0.015455 0.0149896 0.0144743 0.0138981 0.0131875 0.0123158 0.0112946 0.0101425 0.00890157 0.00757953 0.00620435 0.00475318 0.00319401 0.00151857 -0.000373169 -0.00248631 -0.00484396 -0.00729331 -0.0104913 -0.0142063 -0.0191596 -0.0242376 0 0 0 0 0 0 0 0 0 0 0 0 0 0 0 0 0 0 0 0 0 0 0 0 0 0 0 0 0 0 0 0 0 0 0 0 0 0 0 0 0 0 0 0 0 0 0 0 0 0 0 0 0 0 0 0 0 0 0 0 0 0 0 0 0 0 0 0 0 0 0 0 0 0 0 0 0 0 0 0 0 0 0 0 0 0 0 0 0 0 0 0 0 0 0 0 0 0 0 0 0 0 0 0 0 0 0 0 0 0 0 0 0 0 0 0 0 0 0 0 0 0 0 0 0 0 0 0 0 0 0 0 0 0 0 0 0 0 0 0 0 0 0 0 0 0 0 0 0 0 0 0 0 0 0 0 0 0 0 0 0 0 0 0 0 0 0 0 0 0 -0.00430765 -4.33681e-19 
0.02 0.02 0.02 0.02 0.02 0.02 0.02 0.02 0.02 0.02 0.02 0.02 0.02 0.02 0.02 0.02 0.02 0.02 0.02 0.02 0.02 0.02 0.02 0.02 0.02 0.02 0.02 0.02 0.02 0.02 0.02 0.02 0.02 0.02 0.02 0.02 0.02 0.02 0.02 0.02 0.02 0.02 0.02 0.02 0.02 0.02 0.02 0.02 0.02 0.02 0.02 0.02 0.02 0.02 0.02 0.02 0.02 0.02 0.02 0.02 0.02 0.02 0.02 0.02 0.02 0.02 0.02 0.02 0.02 0.02 0.02 0.02 0.02 0.02 0.02 0.02 0.02 0.02 0.02 0.02 0.02 0.02 0.02 0.02 0.02 0.02 0.02 0.02 0.02 0.02 0.02 0.02 0.02 0.02 0.02 0.02 0.02 0.02 0.02 0.02 0.02 0.02 0.02 0.02 0.02 0.02 0.02 0.02 0.02 0.02 0.02 0.02 0.02 0.02 0.02 0.02 0.02 0.02 0.02 0.02 0.02 0.02 0.02 0.02 0.02 0.02 0.02 0.02 0.02 0.0199999 0.0199999 0.0199999 0.0199999 0.0199999 0.0199999 0.0199999 0.0199999 0.0199999 0.0199999 0.0199999 0.0199999 0.0199998 0.0199998 0.0199998 0.0199998 0.0199998 0.0199997 0.0199997 0.0199997 0.0199997 0.0199996 0.0199996 0.0199996 0.0199995 0.0199995 0.0199994 0.0199994 0.0199993 0.0199993 0.0199992 0.0199991 0.0199991 0.019999 0.0199989 0.0199988 0.0199987 0.0199986 0.0199985 0.0199984 0.0199983 0.0199981 0.019998 0.0199979 0.0199977 0.0199975 0.0199973 0.0199972 0.019997 0.0199968 0.0199965 0.0199963 0.0199961 0.0199958 0.0199955 0.0199953 0.019995 0.0199947 0.0199944 0.0199941 0.0199937 0.0199934 0.0199931 0.0199927 0.0199924 0.019992 0.0199917 0.0199913 0.019991 0.0199906 0.0199903 0.01999 0.0199897 0.0199894 0.0199891 0.0199889 0.0199887 0.0199885 0.0199883 0.0199882 0.0199882 0.0199882 0.0199883 0.0199884 0.0199887 0.019989 0.0199894 0.0199899 0.0199905 0.0199912 0.019992 0.019993 0.0199941 0.0199954 0.0199968 0.0199984 0.0200001 0.020002 0.0200042 0.0200065 0.020009 0.0200117 0.0200147 0.0200178 0.0200212 0.0200249 0.0200288 0.0200329 0.0200373 0.020042 0.0200469 0.0200521 0.0200576 0.0200634 0.0200694 0.0200758 0.0200824 0.0200892 0.0200964 0.0201038 0.0201115 0.0201195 0.0201278 0.0201363 0.020145 0.020154 0.0201633 0.0201728 0.0201825 0.0201924 0.0202026 0.0202129 0.0202234 0.0202341 0.020245 0.020256 0.0202671 0.0202783 0.0202897 0.0203011 0.0203126 0.0203241 0.0203357 0.0203472 0.0203588 0.0203703 0.0203818 0.0203931 0.0204044 0.0204156 0.0204267 0.0204376 0.0204483 0.0204588 0.0204691 0.0204791 0.0204889 0.0204985 0.0205077 0.0205166 0.0205252 0.0205335 0.0205414 0.0205489 0.0205561 0.0205628 0.0205692 0.0205752 0.0205807 0.0205859 0.0205906 0.0205949 0.0205989 0.0206024 0.0206055 0.0206082 0.0206105 0.0206124 0.020614 0.0206152 0.0206161 0.0206166 0.0206169 0.0206168 0.0206165 0.0206159 0.0206151 0.0206141 0.0206129 0.0206115 0.02061 0.0206083 0.0206066 0.0206047 0.0206028 0.0206009 0.0205989 0.0205969 0.0205949 0.020593 0.0205911 0.0205892 0.0205874 0.0205856 0.020584 0.0205824 0.0205809 0.0205795 0.0205781 0.0205769 0.0205758 0.0205747 0.0205737 0.0205728 0.0205719 0.0205711 0.0205703 0.0205696 0.0205688 0.0205681 0.0205674 0.0205666 0.0205658 0.020565 0.020564 0.020563 0.0205619 0.0205607 0.0205594 0.0205579 0.0205563 0.0205545 0.0205526 0.0205505 0.0205482 0.0205457 0.020543 0.0205401 0.020537 0.0205337 0.0205302 0.0205264 0.0205224 0.0205182 0.0205139 0.0205093 0.0205046 0.0204997 0.0204947 0.0204896 0.0204843 0.0204789 0.0204733 0.0204675 0.0204616 0.0204555 0.0204492 0.0204426 0.0204357 0.0204284 0.0204206 0.0204123 0.0204032 0.0203932 0.0203821 0.0203698 0.0203561 0.0203406 0.0203233 0.0203037 0.0202817 0.0202569 0.0202291 0.0201978 0.0201628 0.0201236 0.0200797 0.0200304 0.0199751 0.019913 0.0198428 0.0197632 0.0196728 0.0195698 0.0194522 0.0193182 0.0191658 0.0189935 0.0187999 0.0185838 0.0183442 0.0180805 0.0177932 0.0174834 0.0171539 0.0168056 0.0164375 0.0160459 0.0156222 0.0151572 0.014613 0.0139734 0.0132249 0.0123388 0.0113264 0.0102009 0.00899208 0.00770329 0.00633743 0.00487588 0.00328299 0.00153283 -0.000397784 -0.00256204 -0.00495978 -0.00758479 -0.0104243 -0.0138033 -0.0179789 -0.0233147 -0.0305251 -0.0356986 0 0 0 0 0 0 0 0 0 0 0 0 0 0 0 0 0 0 0 0 0 0 0 0 0 0 0 0 0 0 0 0 0 0 0 0 0 0 0 0 0 0 0 0 0 0 0 0 0 0 0 0 0 0 0 0 0 0 0 0 0 0 0 0 0 0 0 0 0 0 0 0 0 0 0 0 0 0 0 0 0 0 0 0 0 0 0 0 0 0 0 0 0 0 0 0 0 0 0 0 0 0 0 0 0 0 0 0 0 0 0 0 0 0 0 0 0 0 0 0 0 0 0 0 0 0 0 0 0 0 0 0 0 0 0 0 0 0 0 0 0 0 0 0 0 0 0 0 0 0 0 0 0 0 0 0 0 0 0 0 0 0 0 0 0 0 0 -0.0161649 -0.00805544 -1.30104e-18 