# vtk DataFile Version 2.0
iteration 189
ASCII

DATASET STRUCTURED_POINTS
DIMENSIONS 621 64 1
ORIGIN 0 0 0
SPACING 0.00161031 0.00161031 0.00161031

POINT_DATA 39744
SCALARS P float 1
LOOKUP_TABLE default
0 0 0 0 0 0 0 0 0 0 0 0 0 0 0 0 0 0 0 0 0 0 0 0 0 0 0 0 0 0 0 0 0 0 0 0 0 0 0 0 0 0 0 0 0 0 0 0 0 0 0 0 0 0 0 0 0 0 0 0 0 0 0 0 0 0 0 0 0 0 0 0 0 0 0 0 0 0 0 0 0 0 0 0 0 0 0 0 0 0 0 0 0 0 0 0 0 0 0 0 0 0 0 0 0 0 0 0 0 0 0 0 0 0 0 0 0 0 0 0 0 0 0 0 0 0 0 0 0 0 0 0 0 0 0 0 0 0 0 0 0 0 0 0 0 0 0 0 0 0 0 0 0 0 0 0 0 0 0 0 0 0 0 0 0 0 0 0 0 0 0 0 0 0 0 0 0 0 0 0 0 0 0 0 0 0 0 0 0 0 0 0 0 0 0 0 0 0 0 0 0 0 0 0 0 0 0 0 0 0 0 0 0 0 0 0 0 0 0 0 0 0 0 0 0 0 0 0 0 0 0 0 0 0 0 0 0 0 0 0 0 0 0 0 0 0 0 0 0 0 0 0 0 0 0 0 0 0 0 0 0 0 0 0 0 0 0 0 0 0 0 0 0 0 0 0 0 0 0 0 0 0 0 0 0 0 0 0 0 0 0 0 0 0 0 0 0 0 0 0 0 0 0 0 0 0 0 0 0 0 0 0 0 0 0 0 0 0 0 0 0 0 0 0 0 0 0 0 0 0 0 0 0 0 0 0 0 0 0 0 0 0 0 0 0 0 0 0 0 0 0 0 0 0 0 0 0 0 0 0 0 0 0 0 0 0 0 0 0 0 0 0 0 0 0 0 0 0 0 0 0 0 0 0 0 0 0 0 0 0 0 0 0 0 0 0 0 0 0 0 0 0 0 0 0 0 0 0 0 0 0 0 0 0 0 0 0 0 0 0 0 0 0 0 0 0 0 0 0 0 0 0 0 0 0 0 0 0 0 0 0 0 0 0 0 0 0 0 0 0 0 0 0 0 0 0 0 0 0 0 0 0 0 0 0 0 0 0 0 0 0 0 0 0 0 0 0 0 0 0 0 0 0 0 0 0 0 0 0 0 0 0 0 0 0 0 0 0 0 0 0 0 0 0 0 0 0 0 0 0 0 0 0 0 0 0 0 0 0 0 0 0 0 0 0 0 0 0 0 0 0 0 0 0 0 0 0 0 0 0 0 0 0 0 0 0 0 0 0 0 0 0 0 0 0 0 0 0 0 0 0 0 0 0 0 0 0 0 0 0 0 0 0 0 0 0 0 0 0 0 0 0 0 0 0 0 0 0 0 0 0 0 0 0 0 0 0 0 0 0 0 0 0 0 0 0 0 0 0 0 0 0 0 0 0 0 0 0 0 0 0 
0.02 0.0199606 0.0199142 0.0198603 0.0198001 0.0197367 0.0196736 0.0196142 0.0195612 0.019516 0.019478 0.0194387 0.0193828 0.0193219 0.0192502 0.0191594 0.0190332 0.0188578 0.018623 0.0183209 0.017948 0.0175013 0.0169848 0.0164429 0.0162468 0.0161263 0.0181376 0 0 0 0 0 0 0 0 0 0 0 0 0 0 0 0 0 0 0 0 0 0 0 0 0 0 0 0 0 0 0 0 0 0 0 0 0 0 0 0 0 0 0 0 0 0 0 0 0 0 0 0 0 0 0 0 0 0 0 0 0 0 0 0 0 0 0 0 0 0 0 0 0 0 0 0 0 0 0 0 0 0 0 0 0 0 0 0 0 0 0 0 0 0 0 0 0 0 0 0 0 0 0 0 0 0 0 0 0 0 0 0 0 0 0 0 0 0 0 0 0 0 0 0 0 0 0 0 0 0 0 0 0 0 0 0 0 0 0 0 0 0 0 0 0 0 0 0 0 0 0 0 0 0 0 0 0 0 0 0 0 0 0 0 0 0 0 0 0 0 0 0 0 0 0 0 0 0 0 0 0 0 0 0 0 0 0 0 0 0 0 0 0 0 0 0 0 0 0 0 0 0 0 0 0 0 0 0 0 0 0 0 0 0 0 0 0 0 0 0 0 0 0 0 0 0 0 0 0 0 0 0 0 0 0 0 0 0 0 0 0 0 0 0 0 0 0 0 0 0 0 0 0 0 0 0 0 0 0 0 0 0 0 0 0 0 0 0 0 0 0 0 0 0 0 0 0 0 0 0 0 0 0 0 0 0 0 0 0 0 0 0 0 0 0 0 0 0 0 0 0 0 0 0 0 0 0 0 0 0 0 0 0 0 0 0 0 0 0 0 0 0 0 0 0 0 0 0 0 0 0 0 0 0 0 0 0 0 0 0 0 0 0 0 0 0 0 0 0 0 0 0 0 0 0 0 0 0 0 0 0 0 0 0 0 0 0 0 0 0 0 0 0 0 0 0 0 0 0 0 0 0 0 0 0 0 0 0 0 0 0 0 0 0 0 0 0 0 0 0 0 0 0 0 0 0 0 0 0 0 0 0 0 0 0 0 0 0 0 0 0 0 0 0 0 0 0 0 0 0 0 0 0 0 0 0 0 0 0 0 0 0 0 0 0 0 0 0 0 0 0 0 0 0 0 0 0 0 0 0 0 0 0 0 0 0 0 0 0 0 0 0 0 0 0 0 0 0 0 0 0 0 0 0 0 0 0 0 0 0 0 0 0 0 0 0 0 0 0 0 0 0 0 0 0 0 0 0 0 0 0 0 0 0 0 0 0 0 0 0 0 0 0 0 0 0 0 0 0 0 0 0 0 0 0 0 0 0 0 0 0 0 0 0 0 0 0 0 0 0 0 0 0 0 0 0 0 0 0 0 0 0 0 0 0 0 0 0 0 0 0 0 0 0 0 0 0 0 0 0 0 0 0 0 0 0 0 0 0 0 0 0 0 0 
0.02 0.0199614 0.0199142 0.0198589 0.0197975 0.019733 0.0196687 0.0196082 0.019554 0.0195077 0.0194687 0.0194321 0.0193859 0.0193269 0.0192546 0.0191602 0.0190302 0.0188521 0.0186164 0.0183152 0.0179497 0.0175257 0.0170363 0.0165808 0.0162792 0.0155044 0.0157623 0.0149379 0.0136905 0.0124645 0.0112063 0.0100039 0.0102895 0 0 0 0 0 0 0 0 0 0 0 0 0 0 0 0 0 0 0 0 0 0 0 0 0 0 0 0 0 0 0 0 0 0 0 0 0 0 0 0 0 0 0 0 0 0 0 0 0 0 0 0 0 0 0 0 0 0 0 0 0 0 0 0 0 0 0 0 0 0 0 0 0 0 0 0 0 0 0 0 0 0 0 0 0 0 0 0 0 0 0 0 0 0 0 0 0 0 0 0 0 0 0 0 0 0 0 0 0 0 0 0 0 0 0 0 0 0 0 0 0 0 0 0 0 0 0 0 0 0 0 0 0 0 0 0 0 0 0 0 0 0 0 0 0 0 0 0 0 0 0 0 0 0 0 0 0 0 0 0 0 0 0 0 0 0 0 0 0 0 0 0 0 0 0 0 0 0 0 0 0 0 0 0 0 0 0 0 0 0 0 0 0 0 0 0 0 0 0 0 0 0 0 0 0 0 0 0 0 0 0 0 0 0 0 0 0 0 0 0 0 0 0 0 0 0 0 0 0 0 0 0 0 0 0 0 0 0 0 0 0 0 0 0 0 0 0 0 0 0 0 0 0 0 0 0 0 0 0 0 0 0 0 0 0 0 0 0 0 0 0 0 0 0 0 0 0 0 0 0 0 0 0 0 0 0 0 0 0 0 0 0 0 0 0 0 0 0 0 0 0 0 0 0 0 0 0 0 0 0 0 0 0 0 0 0 0 0 0 0 0 0 0 0 0 0 0 0 0 0 0 0 0 0 0 0 0 0 0 0 0 0 0 0 0 0 0 0 0 0 0 0 0 0 0 0 0 0 0 0 0 0 0 0 0 0 0 0 0 0 0 0 0 0 0 0 0 0 0 0 0 0 0 0 0 0 0 0 0 0 0 0 0 0 0 0 0 0 0 0 0 0 0 0 0 0 0 0 0 0 0 0 0 0 0 0 0 0 0 0 0 0 0 0 0 0 0 0 0 0 0 0 0 0 0 0 0 0 0 0 0 0 0 0 0 0 0 0 0 0 0 0 0 0 0 0 0 0 0 0 0 0 0 0 0 0 0 0 0 0 0 0 0 0 0 0 0 0 0 0 0 0 0 0 0 0 0 0 0 0 0 0 0 0 0 0 0 0 0 0 0 0 0 0 0 0 0 0 0 0 0 0 0 0 0 0 0 0 0 0 0 0 0 0 0 0 0 0 0 0 0 0 0 0 0 0 0 0 0 0 0 0 0 0 0 0 0 0 0 0 0 0 0 0 0 0 0 0 0 0 0 0 0 0 0 0 0 0 0 0 0 0 0 0 0 0 0 0 0 0 0 0 0 0 0 0 0 0 
0.02 0.0199585 0.019908 0.01985 0.0197866 0.0197209 0.0196562 0.0195958 0.0195425 0.0194976 0.0194605 0.0194272 0.0193889 0.0193354 0.0192633 0.0191655 0.0190313 0.0188505 0.0186149 0.0183195 0.0179695 0.017583 0.0171605 0.0167324 0.01646 0.0161451 0.0154642 0.0146173 0.0135229 0.0123527 0.0111191 0.00961544 0.00873203 0.00698856 0.00488035 0.00358678 0.000777024 0 0 0 0 0 0 0 0 0 0 0 0 0 0 0 0 0 0 0 0 0 0 0 0 0 0 0 0 0 0 0 0 0 0 0 0 0 0 0 0 0 0 0 0 0 0 0 0 0 0 0 0 0 0 0 0 0 0 0 0 0 0 0 0 0 0 0 0 0 0 0 0 0 0 0 0 0 0 0 0 0 0 0 0 0 0 0 0 0 0 0 0 0 0 0 0 0 0 0 0 0 0 0 0 0 0 0 0 0 0 0 0 0 0 0 0 0 0 0 0 0 0 0 0 0 0 0 0 0 0 0 0 0 0 0 0 0 0 0 0 0 0 0 0 0 0 0 0 0 0 0 0 0 0 0 0 0 0 0 0 0 0 0 0 0 0 0 0 0 0 0 0 0 0 0 0 0 0 0 0 0 0 0 0 0 0 0 0 0 0 0 0 0 0 0 0 0 0 0 0 0 0 0 0 0 0 0 0 0 0 0 0 0 0 0 0 0 0 0 0 0 0 0 0 0 0 0 0 0 0 0 0 0 0 0 0 0 0 0 0 0 0 0 0 0 0 0 0 0 0 0 0 0 0 0 0 0 0 0 0 0 0 0 0 0 0 0 0 0 0 0 0 0 0 0 0 0 0 0 0 0 0 0 0 0 0 0 0 0 0 0 0 0 0 0 0 0 0 0 0 0 0 0 0 0 0 0 0 0 0 0 0 0 0 0 0 0 0 0 0 0 0 0 0 0 0 0 0 0 0 0 0 0 0 0 0 0 0 0 0 0 0 0 0 0 0 0 0 0 0 0 0 0 0 0 0 0 0 0 0 0 0 0 0 0 0 0 0 0 0 0 0 0 0 0 0 0 0 0 0 0 0 0 0 0 0 0 0 0 0 0 0 0 0 0 0 0 0 0 0 0 0 0 0 0 0 0 0 0 0 0 0 0 0 0 0 0 0 0 0 0 0 0 0 0 0 0 0 0 0 0 0 0 0 0 0 0 0 0 0 0 0 0 0 0 0 0 0 0 0 0 0 0 0 0 0 0 0 0 0 0 0 0 0 0 0 0 0 0 0 0 0 0 0 0 0 0 0 0 0 0 0 0 0 0 0 0 0 0 0 0 0 0 0 0 0 0 0 0 0 0 0 0 0 0 0 0 0 0 0 0 0 0 0 0 0 0 0 0 0 0 0 0 0 0 0 0 0 0 0 0 0 0 0 0 0 0 0 0 0 0 0 0 0 0 0 0 0 0 0 0 0 0 0 0 0 0 0 0 0 0 0 0 0 0 0 0 0 0 0 0 0 0 0 0 0 0 0 0 0 0 0 0 0 
0.02 0.0199554 0.0199018 0.019841 0.0197756 0.0197087 0.0196437 0.0195839 0.0195318 0.0194886 0.0194535 0.0194225 0.0193876 0.0193388 0.0192678 0.0191678 0.0190305 0.0188483 0.0186162 0.0183331 0.0180057 0.0176596 0.0172976 0.0169048 0.0165502 0.016064 0.0153938 0.0145338 0.0134717 0.0123361 0.0111502 0.00990916 0.00837145 0.00661411 0.00460908 0.00265414 0.000164136 -0.00289704 -0.00569744 0 0 0 0 0 0 0 0 0 0 0 0 0 0 0 0 0 0 0 0 0 0 0 0 0 0 0 0 0 0 0 0 0 0 0 0 0 0 0 0 0 0 0 0 0 0 0 0 0 0 0 0 0 0 0 0 0 0 0 0 0 0 0 0 0 0 0 0 0 0 0 0 0 0 0 0 0 0 0 0 0 0 0 0 0 0 0 0 0 0 0 0 0 0 0 0 0 0 0 0 0 0 0 0 0 0 0 0 0 0 0 0 0 0 0 0 0 0 0 0 0 0 0 0 0 0 0 0 0 0 0 0 0 0 0 0 0 0 0 0 0 0 0 0 0 0 0 0 0 0 0 0 0 0 0 0 0 0 0 0 0 0 0 0 0 0 0 0 0 0 0 0 0 0 0 0 0 0 0 0 0 0 0 0 0 0 0 0 0 0 0 0 0 0 0 0 0 0 0 0 0 0 0 0 0 0 0 0 0 0 0 0 0 0 0 0 0 0 0 0 0 0 0 0 0 0 0 0 0 0 0 0 0 0 0 0 0 0 0 0 0 0 0 0 0 0 0 0 0 0 0 0 0 0 0 0 0 0 0 0 0 0 0 0 0 0 0 0 0 0 0 0 0 0 0 0 0 0 0 0 0 0 0 0 0 0 0 0 0 0 0 0 0 0 0 0 0 0 0 0 0 0 0 0 0 0 0 0 0 0 0 0 0 0 0 0 0 0 0 0 0 0 0 0 0 0 0 0 0 0 0 0 0 0 0 0 0 0 0 0 0 0 0 0 0 0 0 0 0 0 0 0 0 0 0 0 0 0 0 0 0 0 0 0 0 0 0 0 0 0 0 0 0 0 0 0 0 0 0 0 0 0 0 0 0 0 0 0 0 0 0 0 0 0 0 0 0 0 0 0 0 0 0 0 0 0 0 0 0 0 0 0 0 0 0 0 0 0 0 0 0 0 0 0 0 0 0 0 0 0 0 0 0 0 0 0 0 0 0 0 0 0 0 0 0 0 0 0 0 0 0 0 0 0 0 0 0 0 0 0 0 0 0 0 0 0 0 0 0 0 0 0 0 0 0 0 0 0 0 0 0 0 0 0 0 0 0 0 0 0 0 0 0 0 0 0 0 0 0 0 0 0 0 0 0 0 0 0 0 0 0 0 0 0 0 0 0 0 0 0 0 0 0 0 0 0 0 0 0 0 0 0 0 0 0 0 0 0 0 0 0 0 0 0 0 0 0 0 0 0 0 0 0 0 0 0 0 0 0 0 0 0 0 0 0 0 0 0 0 0 0 0 0 0 0 0 0 0 0 0 0 -7.58942e-19 
0.02 0.0199531 0.019897 0.0198341 0.0197672 0.0196996 0.0196346 0.0195754 0.0195243 0.0194825 0.0194486 0.0194183 0.0193842 0.0193365 0.0192658 0.0191647 0.0190267 0.0188463 0.0186225 0.018358 0.0180603 0.0177439 0.0174173 0.0170471 0.0165828 0.0160557 0.0153437 0.0144778 0.0134699 0.0123586 0.0111756 0.00983557 0.00828864 0.00651315 0.00452211 0.00238709 3.26996e-05 -0.00289322 -0.00598047 -0.010158 -0.0144969 0 0 0 0 0 0 0 0 0 0 0 0 0 0 0 0 0 0 0 0 0 0 0 0 0 0 0 0 0 0 0 0 0 0 0 0 0 0 0 0 0 0 0 0 0 0 0 0 0 0 0 0 0 0 0 0 0 0 0 0 0 0 0 0 0 0 0 0 0 0 0 0 0 0 0 0 0 0 0 0 0 0 0 0 0 0 0 0 0 0 0 0 0 0 0 0 0 0 0 0 0 0 0 0 0 0 0 0 0 0 0 0 0 0 0 0 0 0 0 0 0 0 0 0 0 0 0 0 0 0 0 0 0 0 0 0 0 0 0 0 0 0 0 0 0 0 0 0 0 0 0 0 0 0 0 0 0 0 0 0 0 0 0 0 0 0 0 0 0 0 0 0 0 0 0 0 0 0 0 0 0 0 0 0 0 0 0 0 0 0 0 0 0 0 0 0 0 0 0 0 0 0 0 0 0 0 0 0 0 0 0 0 0 0 0 0 0 0 0 0 0 0 0 0 0 0 0 0 0 0 0 0 0 0 0 0 0 0 0 0 0 0 0 0 0 0 0 0 0 0 0 0 0 0 0 0 0 0 0 0 0 0 0 0 0 0 0 0 0 0 0 0 0 0 0 0 0 0 0 0 0 0 0 0 0 0 0 0 0 0 0 0 0 0 0 0 0 0 0 0 0 0 0 0 0 0 0 0 0 0 0 0 0 0 0 0 0 0 0 0 0 0 0 0 0 0 0 0 0 0 0 0 0 0 0 0 0 0 0 0 0 0 0 0 0 0 0 0 0 0 0 0 0 0 0 0 0 0 0 0 0 0 0 0 0 0 0 0 0 0 0 0 0 0 0 0 0 0 0 0 0 0 0 0 0 0 0 0 0 0 0 0 0 0 0 0 0 0 0 0 0 0 0 0 0 0 0 0 0 0 0 0 0 0 0 0 0 0 0 0 0 0 0 0 0 0 0 0 0 0 0 0 0 0 0 0 0 0 0 0 0 0 0 0 0 0 0 0 0 0 0 0 0 0 0 0 0 0 0 0 0 0 0 0 0 0 0 0 0 0 0 0 0 0 0 0 0 0 0 0 0 0 0 0 0 0 0 0 0 0 0 0 0 0 0 0 0 0 0 0 0 0 0 0 0 0 0 0 0 0 0 0 0 0 0 0 0 0 0 0 0 0 0 0 0 0 0 0 0 0 0 0 0 0 0 0 0 0 0 0 0 0 0 0 0 0 0 0 0 0 0 0 0 0 0 0 0 0 0 0 0 0 0 0 0 0 0 0 0 0 0 0 0 0 0 0 0 0 -0.00545769 0 
0.02 0.0199518 0.0198942 0.01983 0.0197624 0.0196945 0.0196298 0.0195713 0.0195211 0.0194799 0.019446 0.019415 0.0193796 0.0193306 0.019259 0.0191576 0.0190212 0.0188467 0.0186352 0.0183918 0.0181207 0.0178252 0.0175054 0.0171275 0.0166634 0.0160579 0.0153144 0.0144523 0.0134753 0.012388 0.0111493 0.00979168 0.00821045 0.00641208 0.00439724 0.00218576 -0.000327043 -0.00309052 -0.00604609 -0.00986739 -0.0141716 -0.0197245 -0.0261632 0 0 0 0 0 0 0 0 0 0 0 0 0 0 0 0 0 0 0 0 0 0 0 0 0 0 0 0 0 0 0 0 0 0 0 0 0 0 0 0 0 0 0 0 0 0 0 0 0 0 0 0 0 0 0 0 0 0 0 0 0 0 0 0 0 0 0 0 0 0 0 0 0 0 0 0 0 0 0 0 0 0 0 0 0 0 0 0 0 0 0 0 0 0 0 0 0 0 0 0 0 0 0 0 0 0 0 0 0 0 0 0 0 0 0 0 0 0 0 0 0 0 0 0 0 0 0 0 0 0 0 0 0 0 0 0 0 0 0 0 0 0 0 0 0 0 0 0 0 0 0 0 0 0 0 0 0 0 0 0 0 0 0 0 0 0 0 0 0 0 0 0 0 0 0 0 0 0 0 0 0 0 0 0 0 0 0 0 0 0 0 0 0 0 0 0 0 0 0 0 0 0 0 0 0 0 0 0 0 0 0 0 0 0 0 0 0 0 0 0 0 0 0 0 0 0 0 0 0 0 0 0 0 0 0 0 0 0 0 0 0 0 0 0 0 0 0 0 0 0 0 0 0 0 0 0 0 0 0 0 0 0 0 0 0 0 0 0 0 0 0 0 0 0 0 0 0 0 0 0 0 0 0 0 0 0 0 0 0 0 0 0 0 0 0 0 0 0 0 0 0 0 0 0 0 0 0 0 0 0 0 0 0 0 0 0 0 0 0 0 0 0 0 0 0 0 0 0 0 0 0 0 0 0 0 0 0 0 0 0 0 0 0 0 0 0 0 0 0 0 0 0 0 0 0 0 0 0 0 0 0 0 0 0 0 0 0 0 0 0 0 0 0 0 0 0 0 0 0 0 0 0 0 0 0 0 0 0 0 0 0 0 0 0 0 0 0 0 0 0 0 0 0 0 0 0 0 0 0 0 0 0 0 0 0 0 0 0 0 0 0 0 0 0 0 0 0 0 0 0 0 0 0 0 0 0 0 0 0 0 0 0 0 0 0 0 0 0 0 0 0 0 0 0 0 0 0 0 0 0 0 0 0 0 0 0 0 0 0 0 0 0 0 0 0 0 0 0 0 0 0 0 0 0 0 0 0 0 0 0 0 0 0 0 0 0 0 0 0 0 0 0 0 0 0 0 0 0 0 0 0 0 0 0 0 0 0 0 0 0 0 0 0 0 0 0 0 0 0 0 0 0 0 0 0 -0.0301882 -0.0356519 -0.0383017 -0.0394465 -0.0394297 -0.0395707 -0.0395015 -0.0392943 -0.0389741 -0.0385417 -0.0380377 -0.0374498 -0.0367347 -0.0357379 -0.0349302 -0.0342433 -0.0337459 -0.0340382 -0.0395754 0 0 0 0 0 0 0 0 0 0 0 0 0 0 0 0 0 0 0 0 0 -0.0199147 -0.0100782 -1.30104e-18 
0.02 0.0199513 0.0198933 0.0198289 0.0197612 0.0196937 0.0196296 0.0195718 0.0195221 0.0194808 0.0194458 0.0194126 0.0193743 0.0193226 0.0192495 0.0191485 0.0190159 0.0188503 0.0186534 0.0184289 0.0181785 0.0178953 0.0175631 0.0171652 0.0166637 0.0160437 0.0153017 0.0144438 0.0134758 0.0123846 0.0111516 0.00973916 0.00812794 0.00631901 0.00426848 0.00196298 -0.000650236 -0.00354902 -0.00670814 -0.0101301 -0.013948 -0.0187824 -0.0244757 -0.0318881 -0.0396828 0 0 0 0 0 0 0 0 0 0 0 0 0 0 0 0 0 0 0 0 0 0 0 0 0 0 0 0 0 0 0 0 0 0 0 0 0 0 0 0 0 0 0 0 0 0 0 0 0 0 0 0 0 0 0 0 0 0 0 0 0 0 0 0 0 0 0 0 0 0 0 0 0 0 0 0 0 0 0 0 0 0 0 0 0 0 0 0 0 0 0 0 0 0 0 0 0 0 0 0 0 0 0 0 0 0 0 0 0 0 0 0 0 0 0 0 0 0 0 0 0 0 0 0 0 0 0 0 0 0 0 0 0 0 0 0 0 0 0 0 0 0 0 0 0 0 0 0 0 0 0 0 0 0 0 0 0 0 0 0 0 0 0 0 0 0 0 0 0 0 0 0 0 0 0 0 0 0 0 0 0 0 0 0 0 0 0 0 0 0 0 0 0 0 0 0 0 0 0 0 0 0 0 0 0 0 0 0 0 0 0 0 0 0 0 0 0 0 0 0 0 0 0 0 0 0 0 0 0 0 0 0 0 0 0 0 0 0 0 0 0 0 0 0 0 0 0 0 0 0 0 0 0 0 0 0 0 0 0 0 0 0 0 0 0 0 0 0 0 0 0 0 0 0 0 0 0 0 0 0 0 0 0 0 0 0 0 0 0 0 0 0 0 0 0 0 0 0 0 0 0 0 0 0 0 0 0 0 0 0 0 0 0 0 0 0 0 0 0 0 0 0 0 0 0 0 0 0 0 0 0 0 0 0 0 0 0 0 0 0 0 0 0 0 0 0 0 0 0 0 0 0 0 0 0 0 0 0 0 0 0 0 0 0 0 0 0 0 0 0 0 0 0 0 0 0 0 0 0 0 0 0 0 0 0 0 0 0 0 0 0 0 0 0 0 0 0 0 0 0 0 0 0 0 0 0 0 0 0 0 0 0 0 0 0 0 0 0 0 0 0 0 0 0 0 0 0 0 0 0 0 0 0 0 0 0 0 0 0 0 0 0 0 0 0 0 0 0 0 0 0 0 0 0 0 0 0 0 0 0 0 0 0 0 0 0 0 0 0 0 0 0 0 0 0 0 0 0 0 0 0 0 0 0 0 0 0 0 0 0 0 0 0 0 0 0 0 0 0 0 0 0 0 0 0 0 0 0 0 0 0 0 0 0 0 0 0 0 0 0 0 0 0 0 0 0 0 0 0 0 0 0 -0.0283346 -0.0322672 -0.0356191 -0.038072 -0.039109 -0.0392111 -0.0394325 -0.0393873 -0.03916 -0.0388342 -0.0383818 -0.0378735 -0.037262 -0.0365315 -0.0356947 -0.0349203 -0.0342659 -0.0338466 -0.0339656 -0.0349443 -0.0350185 -0.0347537 -0.0352158 -0.0358677 -0.0364754 -0.0367609 -0.0374583 -0.0391284 -0.0418561 -0.0489412 0 0 0 0 0 0 0 0 0 -0.0407415 -0.0350578 -0.0258373 -0.0144414 -2.38524e-18 
0.02 0.0199517 0.0198943 0.0198305 0.0197636 0.019697 0.0196338 0.0195766 0.0195269 0.0194846 0.0194473 0.0194108 0.0193686 0.0193136 0.0192389 0.0191394 0.0190123 0.0188572 0.0186749 0.0184657 0.0182268 0.0179466 0.0176075 0.0171847 0.0166653 0.0160362 0.0152941 0.0144385 0.0134635 0.0123629 0.0111065 0.00967666 0.00804928 0.00619656 0.00410544 0.0017475 -0.000897542 -0.00387144 -0.0071561 -0.0108461 -0.0147752 -0.0189742 -0.0238353 -0.0297547 -0.0368587 -0.0462716 -0.0557137 0 0 0 0 0 0 0 0 0 0 0 0 0 0 0 0 0 0 0 0 0 0 0 0 0 0 0 0 0 0 0 0 0 0 0 0 0 0 0 0 0 0 0 0 0 0 0 0 0 0 0 0 0 0 0 0 0 0 0 0 0 0 0 0 0 0 0 0 0 0 0 0 0 0 0 0 0 0 0 0 0 0 0 0 0 0 0 0 0 0 0 0 0 0 0 0 0 0 0 0 0 0 0 0 0 0 0 0 0 0 0 0 0 0 0 0 0 0 0 0 0 0 0 0 0 0 0 0 0 0 0 0 0 0 0 0 0 0 0 0 0 0 0 0 0 0 0 0 0 0 0 0 0 0 0 0 0 0 0 0 0 0 0 0 0 0 0 0 0 0 0 0 0 0 0 0 0 0 0 0 0 0 0 0 0 0 0 0 0 0 0 0 0 0 0 0 0 0 0 0 0 0 0 0 0 0 0 0 0 0 0 0 0 0 0 0 0 0 0 0 0 0 0 0 0 0 0 0 0 0 0 0 0 0 0 0 0 0 0 0 0 0 0 0 0 0 0 0 0 0 0 0 0 0 0 0 0 0 0 0 0 0 0 0 0 0 0 0 0 0 0 0 0 0 0 0 0 0 0 0 0 0 0 0 0 0 0 0 0 0 0 0 0 0 0 0 0 0 0 0 0 0 0 0 0 0 0 0 0 0 0 0 0 0 0 0 0 0 0 0 0 0 0 0 0 0 0 0 0 0 0 0 0 0 0 0 0 0 0 0 0 0 0 0 0 0 0 0 0 0 0 0 0 0 0 0 0 0 0 0 0 0 0 0 0 0 0 0 0 0 0 0 0 0 0 0 0 0 0 0 0 0 0 0 0 0 0 0 0 0 0 0 0 0 0 0 0 0 0 0 0 0 0 0 0 0 0 0 0 0 0 0 0 0 0 0 0 0 0 0 0 0 0 0 0 0 0 0 0 0 0 0 0 0 0 0 0 0 0 0 0 0 0 0 0 0 0 0 0 0 0 0 0 0 0 0 0 0 0 0 0 0 0 0 0 0 0 0 0 0 0 0 0 0 0 0 0 0 0 0 0 0 0 0 0 0 0 0 0 0 0 0 0 0 0 0 0 0 0 0 0 0 0 0 0 0 0 0 0 0 0 0 0 0 0 0 0 0 0 0 0 0 0 0 0 0 0 0 0 -0.0294081 -0.0317048 -0.033746 -0.0362581 -0.0379425 -0.0384834 -0.0388474 -0.039112 -0.0391065 -0.0388962 -0.0385873 -0.038175 -0.0376806 -0.0370895 -0.0363838 -0.0356337 -0.0349149 -0.0343351 -0.0340315 -0.0341251 -0.0345304 -0.0346647 -0.0347275 -0.0350914 -0.0356018 -0.0361393 -0.0366885 -0.0376042 -0.0393119 -0.0398695 -0.0439531 -0.0456732 -0.0470972 -0.0487391 -0.0502554 -0.0515244 -0.0524319 -0.0525802 -0.0516594 -0.0493984 -0.045064 -0.0377694 -0.0280039 -0.0163114 -2.60209e-18 
0.02 0.0199529 0.0198968 0.0198345 0.0197692 0.019704 0.0196418 0.019585 0.0195347 0.0194905 0.0194501 0.0194093 0.0193626 0.0193041 0.0192282 0.019131 0.0190104 0.0188655 0.0186956 0.0184975 0.0182636 0.0179818 0.0176333 0.0172011 0.0166703 0.0160339 0.0152891 0.0144315 0.0134521 0.012334 0.011061 0.00961102 0.00795755 0.00607734 0.00393993 0.00152676 -0.0011825 -0.00420099 -0.00756873 -0.0113065 -0.0154216 -0.0200201 -0.0247719 -0.0296557 -0.0364729 -0.041084 -0.0517137 -0.0624587 -0.0688219 0 0 0 0 0 0 0 0 0 0 0 0 0 0 0 0 0 0 0 0 0 0 0 0 0 0 0 0 0 0 0 0 0 0 0 0 0 0 0 0 0 0 0 0 0 0 0 0 0 0 0 0 0 0 0 0 0 0 0 0 0 0 0 0 0 0 0 0 0 0 0 0 0 0 0 0 0 0 0 0 0 0 0 0 0 0 0 0 0 0 0 0 0 0 0 0 0 0 0 0 0 0 0 0 0 0 0 0 0 0 0 0 0 0 0 0 0 0 0 0 0 0 0 0 0 0 0 0 0 0 0 0 0 0 0 0 0 0 0 0 0 0 0 0 0 0 0 0 0 0 0 0 0 0 0 0 0 0 0 0 0 0 0 0 0 0 0 0 0 0 0 0 0 0 0 0 0 0 0 0 0 0 0 0 0 0 0 0 0 0 0 0 0 0 0 0 0 0 0 0 0 0 0 0 0 0 0 0 0 0 0 0 0 0 0 0 0 0 0 0 0 0 0 0 0 0 0 0 0 0 0 0 0 0 0 0 0 0 0 0 0 0 0 0 0 0 0 0 0 0 0 0 0 0 0 0 0 0 0 0 0 0 0 0 0 0 0 0 0 0 0 0 0 0 0 0 0 0 0 0 0 0 0 0 0 0 0 0 0 0 0 0 0 0 0 0 0 0 0 0 0 0 0 0 0 0 0 0 0 0 0 0 0 0 0 0 0 0 0 0 0 0 0 0 0 0 0 0 0 0 0 0 0 0 0 0 0 0 0 0 0 0 0 0 0 0 0 0 0 0 0 0 0 0 0 0 0 0 0 0 0 0 0 0 0 0 0 0 0 0 0 0 0 0 0 0 0 0 0 0 0 0 0 0 0 0 0 0 0 0 0 0 0 0 0 0 0 0 0 0 0 0 0 0 0 0 0 0 0 0 0 0 0 0 0 0 0 0 0 0 0 0 0 0 0 0 0 0 0 0 0 0 0 0 0 0 0 0 0 0 0 0 0 0 0 0 0 0 0 0 0 0 0 0 0 0 0 0 0 0 0 0 0 0 0 0 0 0 0 0 0 0 0 0 0 0 0 0 0 0 0 0 0 0 0 0 0 0 0 0 0 0 0 0 0 0 0 0 0 0 0 0 0 0 0 0 0 0 0 0 0 0 0 0 0 0 0 0 0 0 0 0 0 0 0 -0.0331363 -0.0305732 -0.0330301 -0.0345654 -0.034793 -0.0368009 -0.0375028 -0.0379298 -0.0383961 -0.0386636 -0.038681 -0.0385045 -0.0382426 -0.0378877 -0.0374282 -0.0368725 -0.0362181 -0.0355432 -0.0349002 -0.0344069 -0.0341584 -0.034197 -0.0344015 -0.0345579 -0.0347323 -0.0350601 -0.0355103 -0.0360482 -0.0367697 -0.0378848 -0.0394766 -0.0416077 -0.043393 -0.044921 -0.0466036 -0.0481639 -0.0496745 -0.0510729 -0.052178 -0.0524191 -0.0514625 -0.0489807 -0.0447288 -0.0382144 -0.0292281 -0.0170592 -4.77049e-18 
0.02 0.0199548 0.0199008 0.0198406 0.0197773 0.0197138 0.0196528 0.0195961 0.0195446 0.0194978 0.0194534 0.0194078 0.0193565 0.0192945 0.0192179 0.0191235 0.0190093 0.0188736 0.0187136 0.0185231 0.018292 0.018006 0.0176505 0.0172104 0.0166747 0.0160363 0.0152898 0.014428 0.0134391 0.0123085 0.0110164 0.00954146 0.00786107 0.0059471 0.00377305 0.00131362 -0.0014514 -0.00454543 -0.0079754 -0.0117727 -0.0159737 -0.0205753 -0.0255875 -0.0310514 -0.0367846 -0.0430522 -0.0500216 -0.0577633 -0.066909 -0.0793731 -0.0843761 0 0 0 0 0 0 0 0 0 0 0 0 0 0 0 0 0 0 0 0 0 0 0 0 0 0 0 0 0 0 0 0 0 0 0 0 0 0 0 0 0 0 0 0 0 0 0 0 0 0 0 0 0 0 0 0 0 0 0 0 0 0 0 0 0 0 0 0 0 0 0 0 0 0 0 0 0 0 0 0 0 0 0 0 0 0 0 0 0 0 0 0 0 0 0 0 0 0 0 0 0 0 0 0 0 0 0 0 0 0 0 0 0 0 0 0 0 0 0 0 0 0 0 0 0 0 0 0 0 0 0 0 0 0 0 0 0 0 0 0 0 0 0 0 0 0 0 0 0 0 0 0 0 0 0 0 0 0 0 0 0 0 0 0 0 0 0 0 0 0 0 0 0 0 0 0 0 0 0 0 0 0 0 0 0 0 0 0 0 0 0 0 0 0 0 0 0 0 0 0 0 0 0 0 0 -0.0658166 -0.0832128 0 0 -0.0782884 0 0 0 0 0 0 0 0 0 0 0 0 0 0 0 0 0 0 0 0 0 0 0 0 0 0 0 0 0 0 0 0 0 0 0 0 0 0 0 0 0 0 0 0 0 0 0 0 0 0 0 0 0 0 0 0 0 0 0 0 0 0 0 0 0 0 0 0 0 0 0 0 0 0 0 0 0 0 0 0 0 0 0 0 0 0 0 0 0 0 0 0 0 0 0 0 0 0 0 0 0 0 0 0 0 0 0 0 0 0 0 0 0 0 0 0 0 0 0 0 0 0 0 0 0 0 0 0 0 0 0 0 0 0 0 0 0 0 0 0 0 0 0 0 0 0 0 0 0 0 0 0 0 0 0 0 0 0 0 0 0 0 0 0 0 0 0 0 0 0 0 0 0 0 0 0 0 0 0 0 0 0 0 0 0 0 0 0 0 0 0 0 0 0 0 0 0 0 0 0 0 0 0 0 0 0 0 0 0 0 0 0 0 0 0 0 0 0 0 0 0 0 0 0 0 0 0 0 0 0 0 0 0 0 0 0 0 0 0 0 0 0 0 0 0 0 0 0 0 0 0 0 0 0 0 0 0 0 0 0 0 0 0 0 0 0 0 0 0 0 0 0 0 0 0 0 0 0 0 0 0 0 0 0 0 0 0 0 0 0 0 0 0 0 0 0 0 0 0 0 0 0 0 0 0 0 0 0 0 0 0 0 0 -0.0302072 -0.0335879 -0.0348015 -0.036205 -0.0362643 -0.0365806 -0.0370439 -0.0375669 -0.0379007 -0.0381287 -0.0381562 -0.0380249 -0.0378238 -0.0375241 -0.0371112 -0.0366042 -0.0360202 -0.0354266 -0.0348688 -0.0344519 -0.0342347 -0.0342342 -0.0343595 -0.0345202 -0.03473 -0.0350462 -0.0354888 -0.0360812 -0.0368828 -0.0380768 -0.0396047 -0.0413891 -0.0430565 -0.0446191 -0.0461779 -0.0476951 -0.0492199 -0.0506761 -0.0518933 -0.0523616 -0.0514066 -0.048675 -0.0446323 -0.0385843 -0.0297755 -0.0175511 -8.67362e-19 
0.02 0.0199572 0.0199058 0.0198484 0.0197876 0.0197261 0.019666 0.0196092 0.0195561 0.019506 0.0194572 0.0194065 0.0193504 0.0192854 0.0192082 0.0191165 0.0190081 0.01888 0.0187271 0.0185416 0.018312 0.0180246 0.0176652 0.0172217 0.0166842 0.0160446 0.0152952 0.0144268 0.0134279 0.0122826 0.0109721 0.0094741 0.00776339 0.00581462 0.00360085 0.00109584 -0.00172605 -0.00488456 -0.00839997 -0.0122886 -0.0165406 -0.021197 -0.0263037 -0.0318025 -0.0376027 -0.0437786 -0.0504395 -0.0571344 -0.0642486 -0.0724141 -0.0813776 -0.093834 -0.0975231 0 0 0 0 0 0 0 0 0 0 0 0 0 0 0 0 0 0 0 0 0 0 0 0 0 0 0 0 0 0 0 0 0 0 0 0 0 0 0 0 0 0 0 0 0 0 0 0 0 0 0 0 0 0 0 0 0 0 0 0 0 0 0 0 0 0 0 0 0 0 0 0 0 0 0 0 0 0 0 0 0 0 0 0 0 0 0 0 0 0 0 0 0 0 0 0 0 0 0 0 0 0 0 0 0 0 0 0 0 0 0 0 0 0 0 0 0 0 0 0 0 0 0 0 0 0 0 0 0 0 0 0 0 0 0 0 0 0 0 0 0 0 0 0 0 0 0 0 0 0 0 0 0 0 0 0 0 0 0 0 0 0 0 0 0 0 0 0 0 0 0 0 0 0 0 0 0 0 0 0 0 0 0 0 0 0 0 0 0 0 0 0 0 0 0 0 0 0 -0.0874189 -0.0857258 -0.0806872 -0.0759336 -0.0716502 -0.0717522 -0.0774198 -0.0801422 -0.0789582 -0.0797622 -0.0826171 -0.0863236 -0.0984319 0 0 0 0 0 0 0 0 0 0 0 0 0 0 0 0 0 0 0 0 0 0 0 0 0 0 0 0 0 0 0 0 0 0 0 0 0 0 0 0 0 0 0 0 0 0 0 0 0 0 0 0 0 0 0 0 0 0 0 0 0 0 0 0 0 0 0 0 0 0 0 0 0 0 0 0 0 0 0 0 0 0 0 0 0 0 0 0 0 0 0 0 0 0 0 0 0 0 0 0 0 0 0 0 0 0 0 0 0 0 0 0 0 0 0 0 0 0 0 0 0 0 0 0 0 0 0 0 0 0 0 0 0 0 0 0 0 0 0 0 0 0 0 0 0 0 0 0 0 0 0 0 0 0 0 0 0 0 0 0 0 0 0 0 0 0 0 0 0 0 0 0 0 0 0 0 0 0 0 0 0 0 0 0 0 0 0 0 0 0 0 0 0 0 0 0 0 0 0 0 0 0 0 0 0 0 0 0 0 0 0 0 0 0 0 0 0 0 0 0 0 0 0 0 0 0 0 0 0 0 0 0 0 0 0 0 0 0 0 0 0 0 0 0 0 0 0 0 0 0 0 0 0 0 0 0 0 0 0 0 0 0 0 0 0 0 0 0 0 0 0 0 0 0 0 0 0 0 0 0 0 0 0 0 0 0 0 0 0 0 0 0 0 0 0 0 0 0 0 0 0 0 0 0 0 0 0 0 -0.0323567 -0.0307901 -0.0334278 -0.0349618 -0.0360291 -0.0373044 -0.0364462 -0.0363956 -0.0368009 -0.0372222 -0.0373762 -0.037534 -0.0375652 -0.037489 -0.0373401 -0.0370887 -0.0367315 -0.0362892 -0.0357893 -0.0352823 -0.0348111 -0.0344617 -0.034273 -0.0342549 -0.0343468 -0.0345047 -0.0347268 -0.0350479 -0.035507 -0.0361627 -0.037055 -0.0382173 -0.0396727 -0.0412001 -0.0427643 -0.0442675 -0.0457604 -0.0472799 -0.0488307 -0.0503444 -0.051583 -0.0521183 -0.0514318 -0.0491101 -0.044925 -0.0387462 -0.0301744 -0.0179538 -3.46945e-18 
0.02 0.0199599 0.0199117 0.0198575 0.0197995 0.0197401 0.0196811 0.0196238 0.0195687 0.0195152 0.0194617 0.019406 0.0193453 0.0192773 0.0191998 0.0191104 0.0190068 0.0188847 0.0187375 0.018556 0.0183282 0.0180409 0.0176813 0.0172376 0.0167001 0.0160598 0.0153075 0.0144326 0.0134222 0.0122609 0.0109298 0.00940675 0.0076666 0.00568245 0.00342703 0.000873918 -0.00200111 -0.00522224 -0.00880959 -0.0127779 -0.017142 -0.0218939 -0.0270114 -0.032583 -0.0385433 -0.0446448 -0.0512562 -0.0576976 -0.0646479 -0.0713128 -0.0782643 -0.0865518 -0.0944223 -0.102827 -0.118026 0 0 0 0 0 0 0 0 0 0 0 0 0 0 0 0 0 0 0 0 0 0 0 0 0 0 0 0 0 0 0 0 0 0 0 0 0 0 0 0 0 0 0 0 0 0 0 0 0 0 0 0 0 0 0 0 0 0 0 0 0 0 0 0 0 0 0 0 0 0 0 0 0 0 0 0 0 0 0 0 0 0 0 0 0 0 0 0 0 0 0 0 0 0 0 0 0 0 0 0 0 0 0 0 0 0 0 0 0 0 0 0 0 0 0 0 0 0 0 0 0 0 0 -0.0934561 -0.0993256 -0.0997419 -0.099088 -0.0982959 -0.0971779 -0.0955266 -0.0943344 -0.0932732 -0.0922752 -0.0913052 -0.0903737 -0.0894993 -0.0887484 -0.0880313 -0.0872468 -0.0873585 -0.0900203 -0.0960122 -0.109388 0 0 0 0 0 0 0 0 0 0 0 0 0 0 0 0 0 0 0 0 0 0 0 0 0 0 0 0 0 0 0 0 0 0 0 0 0 0 0 0 0 0 0 0 0 0 0 0 0 0 -0.0959047 -0.0973041 -0.0951068 -0.0914462 -0.0868728 -0.0818323 -0.0772518 -0.0741084 -0.0736527 -0.0757365 -0.077244 -0.07668 -0.0785591 -0.0807212 -0.0834469 -0.0875771 -0.0932996 -0.107274 0 0 0 0 0 0 0 0 0 0 0 0 0 0 0 0 0 0 0 0 0 0 0 0 0 0 0 0 0 0 0 0 0 0 0 0 0 0 0 0 0 0 0 0 0 0 0 0 0 0 0 0 0 0 0 0 0 0 0 0 0 0 0 0 0 0 0 0 0 0 0 0 0 0 0 0 0 0 0 0 0 0 0 0 0 0 0 0 0 0 0 0 0 0 0 0 0 0 0 0 0 0 0 0 0 0 0 0 0 0 0 0 0 0 0 0 0 0 0 0 0 0 0 0 0 0 0 0 0 0 0 0 0 0 0 0 0 0 0 0 0 0 0 0 0 0 0 0 0 0 0 0 0 0 0 0 0 0 0 0 0 0 0 0 0 0 0 0 0 0 0 0 0 0 0 0 0 0 0 0 0 0 0 0 0 0 0 0 0 0 0 0 0 0 0 0 0 0 0 0 0 0 0 0 0 0 0 0 0 0 0 0 0 0 0 0 0 0 0 0 0 0 0 0 0 0 0 0 0 0 0 0 0 0 0 0 0 0 0 0 0 0 0 0 0 0 0 0 0 0 0 0 0 0 0 0 0 0 0 0 0 0 0 0 0 0 0 0 0 0 0 0 0 0 0 0 0 0 0 0 0 0 0 0 0 0 0 0 0 0 0 0 0 0 0 0 0 0 0 0 0 0 0 0 0 -0.0344062 -0.0330776 -0.0351598 -0.0369305 -0.0369642 -0.0381399 -0.0372885 -0.0364139 -0.0365401 -0.0366433 -0.0368018 -0.0368125 -0.0368972 -0.0369307 -0.0369032 -0.036789 -0.0365853 -0.036294 -0.0359311 -0.0355223 -0.0351044 -0.0347196 -0.0344354 -0.0342813 -0.0342639 -0.0343448 -0.034502 -0.0347341 -0.0350713 -0.0355574 -0.0362474 -0.037172 -0.0383058 -0.0396071 -0.0410369 -0.0424754 -0.0439139 -0.0453891 -0.0469284 -0.0485112 -0.0500288 -0.0512252 -0.051691 -0.0509839 -0.0487492 -0.0447922 -0.0388934 -0.0304732 -0.0182083 6.50521e-19 
0.02 0.019963 0.0199183 0.0198675 0.0198127 0.0197555 0.0196977 0.01964 0.0195829 0.019526 0.019468 0.0194074 0.0193427 0.0192722 0.0191942 0.0191068 0.0190068 0.0188893 0.0187467 0.0185687 0.0183435 0.0180583 0.0177006 0.0172589 0.0167226 0.0160817 0.0153258 0.0144435 0.0134214 0.0122437 0.0108913 0.00934209 0.00757079 0.00555053 0.00325366 0.000652957 -0.00227724 -0.00555862 -0.00920884 -0.0132489 -0.0176895 -0.0225288 -0.0277613 -0.0333704 -0.0393136 -0.0455749 -0.0519447 -0.058587 -0.0653076 -0.0717643 -0.0787557 -0.0852329 -0.0922658 -0.0949282 -0.107176 -0.113684 -0.128928 -0.127096 0 0 0 0 0 0 0 0 0 0 0 0 0 0 0 0 0 0 0 0 0 0 0 0 0 0 0 0 0 0 0 0 0 0 0 0 0 0 0 0 0 0 0 0 0 0 0 0 0 0 0 0 0 0 0 0 0 0 0 0 0 0 0 0 0 0 0 0 0 0 0 0 0 0 0 0 0 0 0 0 0 0 0 0 0 0 0 0 0 0 0 0 -0.100164 -0.112665 -0.112547 -0.11209 -0.111605 -0.11115 -0.110762 -0.110466 -0.110283 -0.110213 -0.110221 -0.11023 -0.110116 -0.109747 -0.10905 -0.108121 -0.107282 -0.106496 -0.105708 -0.104788 -0.103757 -0.102733 -0.101778 -0.100893 -0.100026 -0.0990252 -0.0981208 -0.0974315 -0.0982093 -0.0997157 -0.0998998 -0.0992853 -0.0985267 -0.0975417 -0.0962761 -0.095041 -0.0938598 -0.0927002 -0.0915676 -0.0904921 -0.0894849 -0.0886194 -0.0880408 -0.0876924 -0.0882165 -0.0903069 -0.0904348 -0.0982179 -0.099707 -0.101568 -0.106751 -0.121628 -0.118002 0 0 0 0 0 0 0 0 0 0 0 0 0 0 0 0 0 0 0 0 0 0 0 0 0 0 0 0 0 0 0 0 0 0 0 0 0 0 0 0 0 0 0 -0.10445 -0.105312 -0.103653 -0.100334 -0.0964758 -0.0921122 -0.0872974 -0.0825021 -0.0785753 -0.0762215 -0.0757454 -0.0764403 -0.076668 -0.0768283 -0.0774182 -0.0791005 -0.081759 -0.0848432 -0.0891999 -0.0983009 -0.12412 0 0 0 0 0 0 0 0 0 0 0 0 0 0 0 0 0 0 0 0 0 0 0 0 0 0 0 0 0 0 0 0 0 0 0 0 0 0 0 0 0 0 0 0 0 0 0 0 0 0 0 0 0 0 0 0 0 0 0 0 0 0 0 0 0 0 0 0 0 0 0 0 0 0 0 0 0 0 0 0 0 0 0 0 0 0 0 0 0 0 0 0 0 0 0 0 0 0 0 0 0 0 0 0 0 0 0 0 0 0 0 0 0 0 0 0 0 0 0 0 0 0 0 0 0 0 0 0 0 0 0 0 0 0 0 0 0 0 0 0 0 0 0 0 0 0 0 0 0 0 0 0 0 0 0 0 0 0 0 0 0 0 0 0 0 0 0 0 0 0 0 0 0 0 0 0 0 0 0 0 0 0 0 0 0 0 0 0 0 0 0 0 0 0 0 0 0 0 0 0 0 0 0 0 0 0 0 0 0 0 0 0 0 0 0 0 0 0 0 0 0 0 0 0 0 0 0 0 0 0 0 0 0 0 0 0 0 0 0 0 0 0 0 0 0 0 0 0 0 0 0 0 0 0 0 0 0 0 0 0 0 0 0 0 0 0 0 0 0 0 0 0 0 0 0 0 0 0 0 0 0 0 0 0 0 0 0 0 0 0 0 0 0 0 0 0 0 0 0 0 0 0 0 -0.0377267 -0.0359839 -0.036917 -0.0378125 -0.0381467 -0.0389207 -0.0386124 -0.0372919 -0.0367199 -0.0365619 -0.0363585 -0.0362859 -0.0361928 -0.0362396 -0.0362634 -0.036256 -0.03617 -0.0360204 -0.0358041 -0.0355293 -0.0352136 -0.0348871 -0.03459 -0.0343742 -0.0342633 -0.0342622 -0.0343478 -0.0345115 -0.0347585 -0.0351179 -0.0356282 -0.0363323 -0.0372474 -0.0383514 -0.0395764 -0.0408729 -0.0422163 -0.0436142 -0.0450829 -0.0466288 -0.0482046 -0.0496741 -0.0507858 -0.0511677 -0.0504498 -0.0483277 -0.0445846 -0.0389112 -0.0306238 -0.0183509 -2.1684e-18 
0.02 0.0199664 0.0199254 0.0198785 0.019827 0.0197725 0.019716 0.0196583 0.0195995 0.0195395 0.0194776 0.0194131 0.019345 0.0192724 0.0191942 0.0191084 0.0190115 0.0188978 0.0187592 0.0185851 0.0183635 0.0180816 0.0177271 0.0172881 0.0167532 0.0161115 0.0153514 0.0144608 0.0134259 0.0122305 0.0108558 0.00927961 0.00747703 0.00542098 0.00308341 0.000436476 -0.00254585 -0.00588627 -0.00960274 -0.0137057 -0.0182058 -0.0231128 -0.0284047 -0.0340567 -0.040074 -0.0463442 -0.0528532 -0.0594114 -0.0659563 -0.072617 -0.0793744 -0.0857596 -0.0921334 -0.0981979 -0.103454 -0.108381 -0.115538 -0.12397 -0.130433 -0.144215 0 0 0 0 0 0 0 0 0 0 0 0 0 0 0 0 0 0 0 0 0 0 0 0 0 0 0 0 0 0 0 -0.10588 -0.114221 -0.118094 -0.119032 -0.118786 -0.119443 -0.119739 -0.119756 -0.119661 -0.119669 -0.119847 -0.12048 -0.121065 -0.127382 -0.145111 0 0 0 0 0 0 0 0 0 0 0 0 0 0 0 0 0 0 0 0 0 0 0 0 0 0 0 0 0 0 0 0 0 0 0 -0.104252 -0.115858 -0.116824 -0.114817 -0.112934 -0.111922 -0.11058 -0.109735 -0.109493 -0.111065 -0.112777 -0.112629 -0.112159 -0.111651 -0.111173 -0.110764 -0.110447 -0.110232 -0.110105 -0.110016 -0.10988 -0.109601 -0.109107 -0.108438 -0.107651 -0.106897 -0.106279 -0.105582 -0.104732 -0.103795 -0.102872 -0.102019 -0.101202 -0.100436 -0.099796 -0.0992913 -0.0992267 -0.0998732 -0.100232 -0.10002 -0.09943 -0.0986985 -0.0977979 -0.0967117 -0.0955009 -0.0942581 -0.093013 -0.0918035 -0.0906778 -0.0897054 -0.0889243 -0.0886256 -0.0887266 -0.0895452 -0.0917574 -0.0942985 -0.0965312 -0.0975299 -0.100103 -0.100283 -0.110646 -0.116532 -0.12404 -0.138757 0 0 0 0 0 0 0 0 0 0 0 0 0 0 0 0 0 0 0 0 0 0 0 0 0 0 0 0 0 0 0 0 0 0 0 0 0 0 0 0 -0.113101 -0.112615 -0.109537 -0.105773 -0.10143 -0.0968675 -0.092152 -0.0873846 -0.0829887 -0.0796685 -0.077903 -0.0773976 -0.0770781 -0.0768014 -0.0766467 -0.0766985 -0.078114 -0.0805363 -0.0837479 -0.0879534 -0.0955329 -0.110257 -0.138771 0 0 0 0 0 0 0 0 0 0 0 0 0 0 0 0 0 0 0 0 0 0 0 0 0 0 0 0 0 0 0 0 0 0 0 0 0 0 0 0 0 0 0 0 0 0 0 0 0 0 0 0 0 0 0 0 0 0 0 0 0 0 0 0 0 0 0 0 0 0 0 0 0 0 0 0 0 0 0 0 0 0 0 0 0 0 0 0 0 0 0 0 0 0 0 0 0 0 0 0 0 0 0 0 0 0 0 0 0 0 0 0 0 0 0 0 0 0 0 0 0 0 0 0 0 0 0 0 0 0 0 0 0 0 0 0 0 0 0 0 0 0 0 0 0 0 0 0 0 0 0 0 0 0 0 0 0 0 0 0 0 0 0 0 0 0 0 0 0 0 0 0 0 0 0 0 0 0 0 0 0 0 0 0 0 0 0 0 0 0 0 0 0 0 0 0 0 0 0 0 0 0 0 0 0 0 0 0 0 0 0 0 0 0 0 0 0 0 0 0 0 0 0 0 0 0 0 0 0 0 0 0 0 0 0 0 0 0 0 0 0 0 0 0 0 0 0 0 0 0 0 0 0 0 0 0 0 0 0 0 0 0 0 0 0 0 0 0 0 0 0 0 0 0 0 0 0 0 0 0 0 0 0 0 0 0 0 0 0 0 0 0 0 0 0 0 0 0 0 0 0 -0.0396053 -0.0415116 -0.0402895 -0.0403724 -0.040769 -0.0411107 -0.0402275 -0.0387924 -0.0376255 -0.0369638 -0.0364519 -0.0360206 -0.0357211 -0.0355517 -0.0355565 -0.0355526 -0.0355463 -0.0354926 -0.0354049 -0.0352668 -0.0350818 -0.0348599 -0.0346282 -0.0344221 -0.0342804 -0.0342217 -0.0342501 -0.0343543 -0.0345343 -0.0348012 -0.0351839 -0.0357119 -0.0364115 -0.0372875 -0.0383173 -0.0394693 -0.0407035 -0.0420074 -0.0433861 -0.0448472 -0.0463772 -0.0479091 -0.0492952 -0.0502851 -0.0505689 -0.0498369 -0.0478238 -0.0442817 -0.0388191 -0.0306548 -0.0184017 -6.50521e-18 