# vtk DataFile Version 2.0
iteration 1188
ASCII

DATASET STRUCTURED_POINTS
DIMENSIONS 621 64 1
ORIGIN 0 0 0
SPACING 0.00161031 0.00161031 0.00161031

POINT_DATA 39744
SCALARS P float 1
LOOKUP_TABLE default
0 0 0 0 0 0 0 0 0 0 0 0 0 0 0 0 0 0 0 0 0 0 0 0 0 0 0 0 0 0 0 0 0 0 0 0 0 0 0 0 0 0 0 0 0 0 0 0 0 0 0 0 0 0 0 0 0 0 0 0 0 0 0 0 0 0 0 0 0 0 0 0 0 0 0 0 0 0 0 0 0 0 0 0 0 0 0 0 0 0 0 0 0 0 0 0 0 0 0 0 0 0 0 0 0 0 0 0 0 0 0 0 0 0 0 0 0 0 0 0 0 0 0 0 0 0 0 0 0 0 0 0 0 0 0 0 0 0 0 0 0 0 0 0 0 0 0 0 0 0 0 0 0 0 0 0 0 0 0 0 0 0 0 0 0 0 0 0 0 0 0 0 0 0 0 0 0 0 0 0 0 0 0 0 0 0 0 0 0 0 0 0 0 0 0 0 0 0 0 0 0 0 0 0 0 0 0 0 0 0 0 0 0 0 0 0 0 0 0 0 0 0 0 0 0 0 0 0 0 0 0 0 0 0 0 0 0 0 0 0 0 0 0 0 0 0 0 0 0 0 0 0 0 0 0 0 0 0 0 0 0 0 0 0 0 0 0 0 0 0 0 0 0 0 0 0 0 0 0 0 0 0 0 0 0 0 0 0 0 0 0 0 0 0 0 0 0 0 0 0 0 0 0 0 0 0 0 0 0 0 0 0 0 0 0 0 0 0 0 0 0 0 0 0 0 0 0 0 0 0 0 0 0 0 0 0 0 0 0 0 0 0 0 0 0 0 0 0 0 0 0 0 0 0 0 0 0 0 0 0 0 0 0 0 0 0 0 0 0 0 0 0 0 0 0 0 0 0 0 0 0 0 0 0 0 0 0 0 0 0 0 0 0 0 0 0 0 0 0 0 0 0 0 0 0 0 0 0 0 0 0 0 0 0 0 0 0 0 0 0 0 0 0 0 0 0 0 0 0 0 0 0 0 0 0 0 0 0 0 0 0 0 0 0 0 0 0 0 0 0 0 0 0 0 0 0 0 0 0 0 0 0 0 0 0 0 0 0 0 0 0 0 0 0 0 0 0 0 0 0 0 0 0 0 0 0 0 0 0 0 0 0 0 0 0 0 0 0 0 0 0 0 0 0 0 0 0 0 0 0 0 0 0 0 0 0 0 0 0 0 0 0 0 0 0 0 0 0 0 0 0 0 0 0 0 0 0 0 0 0 0 0 0 0 0 0 0 0 0 0 0 0 0 0 0 0 0 0 0 0 0 0 0 0 0 0 0 0 0 0 0 0 0 0 0 0 0 0 0 0 0 0 0 0 0 0 0 0 0 0 0 0 0 0 0 0 0 0 0 0 0 0 0 0 0 0 0 0 0 0 0 0 0 0 0 0 0 0 0 0 0 
0.02 0.02 0.02 0.02 0.02 0.02 0.02 0.02 0.02 0.02 0.02 0.02 0.02 0.02 0.02 0.02 0.02 0.02 0.02 0.02 0.02 0.02 0.02 0.02 0.02 0.02 0.02 0.02 0.02 0.02 0.02 0.02 0.02 0.02 0.02 0.02 0.02 0.02 0.02 0.02 0.02 0.02 0.02 0.02 0.02 0.02 0.02 0.02 0.02 0.02 0.02 0.02 0.02 0.02 0.02 0.02 0.02 0.02 0.02 0.02 0.02 0.02 0.02 0.02 0.02 0.02 0.02 0.0200001 0.0200001 0.0200001 0.0200001 0.0200001 0.0200001 0.0200001 0.0200001 0.0200002 0.0200002 0.0200002 0.0200002 0.0200002 0.0200003 0.0200003 0.0200004 0.0200004 0.0200004 0.0200005 0.0200006 0.0200006 0.0200007 0.0200008 0.0200009 0.020001 0.0200011 0.0200012 0.0200013 0.0200015 0.0200016 0.0200018 0.020002 0.0200022 0.0200025 0.0200027 0.020003 0.0200034 0.0200037 0.0200041 0.0200045 0.020005 0.0200055 0.0200061 0.0200067 0.0200073 0.0200081 0.0200089 0.0200098 0.0200108 0.0200118 0.020013 0.0200143 0.0200157 0.0200172 0.0200189 0.0200208 0.0200228 0.020025 0.0200273 0.0200299 0.0200328 0.0200358 0.0200392 0.0200428 0.0200467 0.0200509 0.0200555 0.0200604 0.0200657 0.0200714 0.0200775 0.020084 0.020091 0.0200984 0.0201063 0.0201147 0.0201236 0.0201329 0.0201428 0.0201531 0.0201639 0.0201752 0.020187 0.0201992 0.0202119 0.0202249 0.0202383 0.0202521 0.0202661 0.0202804 0.0202949 0.0203095 0.0203243 0.0203391 0.020354 0.020369 0.0203839 0.0203987 0.0204133 0.0204276 0.0204416 0.0204553 0.0204685 0.0204812 0.0204934 0.0205051 0.0205161 0.0205265 0.0205363 0.0205455 0.020554 0.0205618 0.0205691 0.0205756 0.0205816 0.0205869 0.0205916 0.0205958 0.0205993 0.0206024 0.0206049 0.0206069 0.0206084 0.0206095 0.0206102 0.0206104 0.0206102 0.0206097 0.0206087 0.0206073 0.0206056 0.0206035 0.0206009 0.020598 0.0205946 0.0205908 0.0205865 0.0205816 0.0205763 0.0205704 0.0205638 0.0205567 0.0205489 0.0205404 0.0205312 0.0205212 0.0205105 0.020499 0.0204867 0.0204736 0.0204597 0.0204451 0.0204297 0.0204136 0.0203968 0.0203794 0.0203614 0.0203429 0.020324 0.0203048 0.0202853 0.0202657 0.0202461 0.0202265 0.0202072 0.0201881 0.0201695 0.0201513 0.0201337 0.0201166 0.0201002 0.0200844 0.0200691 0.0200543 0.0200396 0.020025 0.0200099 0.019994 0.0199767 0.0199574 0.0199353 0.0199096 0.0198793 0.0198436 0.0198013 0.0197513 0.0196925 0.0196237 0.0195434 0.0194503 0.0193426 0.0192183 0.0190753 0.0189116 0.0187256 0.0185103 0.0182627 0.0179888 0.0177713 0.017833 0.0192766 0.0177177 0 0 0 0 0 0 0 0 0 0 0 0 0 0 0 0 0 0 0 0 0 0 0 0 0 0 0 0 0 0 0 0 0 0 0 0 0 0 0 0 0 0 0 0 0 0 0 0 0 0 0 0 0 0 0 0 0 0 0 0 0 0 0 0 0 0 0 0 0 0 0 0 0 0 0 0 0 0 0 0 0 0 0 0 0 0 0 0 0 0 0 0 0 0 0 0 0 0 0 0 0 0 0 0 0 0 0 0 0 0 0 0 0 0 0 0 0 0 0 0 0 0 0 0 0 0 0 0 0 0 0 0 0 0 0 0 0 0 0 0 0 0 0 0 0 0 0 0 0 0 0 0 0 0 0 0 0 0 0 0 0 0 0 0 0 0 0 0 0 0 0 0 0 0 0 0 0 0 0 0 0 0 0 0 0 0 0 0 0 0 0 0 0 0 0 0 0 0 0 0 0 0 0 0 0 0 0 0 0 0 0 0 0 0 0 0 0 0 0 0 0 0 0 0 0 0 0 0 0 0 0 0 0 0 0 0 0 0 0 0 0 0 0 0 0 0 0 0 0 0 0 0 0 0 0 0 0 0 0 0 0 0 0 0 0 0 0 0 0 0 0 0 0 0 0 0 0 0 0 0 0 0 0 0 0 0 0 0 0 0 0 0 0 0 0 0 0 0 0 0 0 0 0 0 0 0 0 0 0 0 0 0 0 0 0 0 0 0 0 0 0 0 0 0 0 0 0 0 0 0 0 0 0 0 0 0 0 0 0 0 0 0 0 0 0 0 0 0 0 0 0 0 
0.02 0.02 0.02 0.02 0.02 0.02 0.02 0.02 0.02 0.02 0.02 0.02 0.02 0.02 0.02 0.02 0.02 0.02 0.02 0.02 0.02 0.02 0.02 0.02 0.02 0.02 0.02 0.02 0.02 0.02 0.02 0.02 0.02 0.02 0.02 0.02 0.02 0.02 0.02 0.02 0.02 0.02 0.02 0.02 0.02 0.02 0.02 0.02 0.02 0.02 0.02 0.02 0.02 0.02 0.02 0.02 0.02 0.02 0.02 0.02 0.02 0.02 0.02 0.02 0.02 0.02 0.02 0.0200001 0.0200001 0.0200001 0.0200001 0.0200001 0.0200001 0.0200001 0.0200001 0.0200001 0.0200002 0.0200002 0.0200002 0.0200002 0.0200003 0.0200003 0.0200003 0.0200004 0.0200004 0.0200005 0.0200005 0.0200006 0.0200007 0.0200008 0.0200008 0.0200009 0.020001 0.0200012 0.0200013 0.0200014 0.0200016 0.0200018 0.020002 0.0200022 0.0200024 0.0200027 0.020003 0.0200033 0.0200036 0.020004 0.0200044 0.0200049 0.0200054 0.0200059 0.0200065 0.0200072 0.0200079 0.0200087 0.0200096 0.0200105 0.0200116 0.0200128 0.020014 0.0200154 0.0200169 0.0200186 0.0200204 0.0200224 0.0200246 0.0200269 0.0200295 0.0200323 0.0200354 0.0200387 0.0200423 0.0200461 0.0200503 0.0200549 0.0200598 0.020065 0.0200707 0.0200767 0.0200832 0.0200902 0.0200975 0.0201054 0.0201137 0.0201226 0.0201319 0.0201417 0.020152 0.0201628 0.0201741 0.0201858 0.020198 0.0202106 0.0202236 0.020237 0.0202507 0.0202648 0.020279 0.0202935 0.0203081 0.0203229 0.0203377 0.0203526 0.0203675 0.0203824 0.0203971 0.0204117 0.0204261 0.0204401 0.0204537 0.020467 0.0204797 0.0204919 0.0205036 0.0205146 0.0205251 0.0205349 0.0205441 0.0205526 0.0205605 0.0205677 0.0205743 0.0205803 0.0205856 0.0205903 0.0205945 0.0205981 0.0206011 0.0206036 0.0206056 0.0206072 0.0206082 0.0206089 0.0206091 0.0206089 0.0206083 0.0206073 0.0206059 0.0206041 0.0206019 0.0205994 0.0205964 0.020593 0.0205891 0.0205847 0.0205799 0.0205745 0.0205685 0.020562 0.0205548 0.0205469 0.0205384 0.0205291 0.0205191 0.0205084 0.0204968 0.0204845 0.0204714 0.0204575 0.0204429 0.0204274 0.0204113 0.0203945 0.020377 0.0203589 0.0203404 0.0203214 0.020302 0.0202824 0.0202627 0.0202429 0.0202231 0.0202036 0.0201842 0.0201653 0.0201468 0.0201288 0.0201114 0.0200945 0.0200783 0.0200626 0.0200472 0.0200321 0.0200169 0.0200014 0.019985 0.0199673 0.0199475 0.019925 0.0198989 0.0198684 0.0198324 0.0197899 0.0197398 0.019681 0.0196121 0.0195319 0.0194388 0.0193313 0.0192072 0.0190643 0.018901 0.0187159 0.0185023 0.018258 0.0179963 0.0178082 0.0178216 0.0180729 0.0176885 0.0170631 0.0166281 0.0161657 0.0156533 0.0151238 0.0145544 0.0139138 0.0131453 0.0121983 0.0112467 0.0103324 0.00960628 0.0102262 0.00836272 0 0 0 0 0 0 0 0 0 0 0 0 0 0 0 0 0 0 0 0 0 0 0 0 0 0 0 0 0 0 0 0 0 0 0 0 0 0 0 0 0 0 0 0 0 0 0 0 0 0 0 0 0 0 0 0 0 0 0 0 0 0 0 0 0 0 0 0 0 0 0 0 0 0 0 0 0 0 0 0 0 0 0 0 0 0 0 0 0 0 0 0 0 0 0 0 0 0 0 0 0 0 0 0 0 0 0 0 0 0 0 0 0 0 0 0 0 0 0 0 0 0 0 0 0 0 0 0 0 0 0 0 0 0 0 0 0 0 0 0 0 0 0 0 0 0 0 0 0 0 0 0 0 0 0 0 0 0 0 0 0 0 0 0 0 0 0 0 0 0 0 0 0 0 0 0 0 0 0 0 0 0 0 0 0 0 0 0 0 0 0 0 0 0 0 0 0 0 0 0 0 0 0 0 0 0 0 0 0 0 0 0 0 0 0 0 0 0 0 0 0 0 0 0 0 0 0 0 0 0 0 0 0 0 0 0 0 0 0 0 0 0 0 0 0 0 0 0 0 0 0 0 0 0 0 0 0 0 0 0 0 0 0 0 0 0 0 0 0 0 0 0 0 0 0 0 0 0 0 0 0 0 0 0 0 0 0 0 0 0 0 0 0 0 0 0 0 0 0 0 0 0 0 0 0 0 0 0 0 0 0 0 0 0 0 0 0 0 0 0 0 0 0 0 0 0 0 0 0 0 0 0 0 0 0 0 0 0 
0.02 0.02 0.02 0.02 0.02 0.02 0.02 0.02 0.02 0.02 0.02 0.02 0.02 0.02 0.02 0.02 0.02 0.02 0.02 0.02 0.02 0.02 0.02 0.02 0.02 0.02 0.02 0.02 0.02 0.02 0.02 0.02 0.02 0.02 0.02 0.02 0.02 0.02 0.02 0.02 0.02 0.02 0.02 0.02 0.02 0.02 0.02 0.02 0.02 0.02 0.02 0.02 0.02 0.02 0.02 0.02 0.02 0.02 0.02 0.02 0.02 0.02 0.02 0.02 0.02 0.02 0.02 0.02 0.0200001 0.0200001 0.0200001 0.0200001 0.0200001 0.0200001 0.0200001 0.0200001 0.0200002 0.0200002 0.0200002 0.0200002 0.0200003 0.0200003 0.0200003 0.0200004 0.0200004 0.0200005 0.0200005 0.0200006 0.0200006 0.0200007 0.0200008 0.0200009 0.020001 0.0200011 0.0200012 0.0200014 0.0200015 0.0200017 0.0200019 0.0200021 0.0200023 0.0200026 0.0200028 0.0200031 0.0200035 0.0200038 0.0200042 0.0200047 0.0200052 0.0200057 0.0200063 0.020007 0.0200077 0.0200085 0.0200093 0.0200103 0.0200113 0.0200124 0.0200137 0.020015 0.0200165 0.0200182 0.02002 0.0200219 0.0200241 0.0200264 0.0200289 0.0200317 0.0200347 0.020038 0.0200416 0.0200454 0.0200496 0.0200541 0.0200589 0.0200641 0.0200698 0.0200758 0.0200822 0.0200891 0.0200965 0.0201043 0.0201126 0.0201214 0.0201306 0.0201404 0.0201507 0.0201614 0.0201727 0.0201844 0.0201965 0.0202091 0.0202221 0.0202355 0.0202492 0.0202632 0.0202775 0.0202919 0.0203065 0.0203212 0.020336 0.0203508 0.0203657 0.0203805 0.0203952 0.0204097 0.020424 0.020438 0.0204516 0.0204648 0.0204775 0.0204896 0.0205013 0.0205123 0.0205227 0.0205325 0.0205416 0.0205501 0.020558 0.0205652 0.0205717 0.0205777 0.020583 0.0205877 0.0205918 0.0205953 0.0205983 0.0206007 0.0206027 0.0206042 0.0206052 0.0206058 0.0206059 0.0206057 0.020605 0.0206039 0.0206025 0.0206006 0.0205984 0.0205958 0.0205927 0.0205892 0.0205853 0.0205808 0.0205759 0.0205704 0.0205643 0.0205577 0.0205504 0.0205424 0.0205338 0.0205244 0.0205143 0.0205034 0.0204917 0.0204792 0.020466 0.0204519 0.0204371 0.0204215 0.0204052 0.0203881 0.0203705 0.0203522 0.0203334 0.0203142 0.0202946 0.0202747 0.0202546 0.0202345 0.0202144 0.0201944 0.0201747 0.0201553 0.0201363 0.0201178 0.0200999 0.0200825 0.0200658 0.0200495 0.0200336 0.020018 0.0200023 0.0199862 0.0199694 0.0199512 0.0199309 0.019908 0.0198815 0.0198505 0.0198141 0.0197713 0.0197208 0.0196617 0.0195926 0.0195121 0.0194188 0.019311 0.0191867 0.0190437 0.0188804 0.0186965 0.0184893 0.0182553 0.0180236 0.0178623 0.017854 0.0178359 0.0175174 0.0170448 0.0165816 0.0161311 0.0156121 0.0150714 0.0144761 0.0138052 0.0130347 0.0121687 0.0112867 0.0103869 0.00961955 0.00907323 0.0080991 0.00677008 0.00546066 0.00405647 0.00257878 0.0010925 2.651e-05 0 0 0 0 0 0 0 0 0 0 0 0 0 0 0 0 0 0 0 0 0 0 0 0 0 0 0 0 0 0 0 0 0 0 0 0 0 0 0 0 0 0 0 0 0 0 0 0 0 0 0 0 0 0 0 0 0 0 0 0 0 0 0 0 0 0 0 0 0 0 0 0 0 0 0 0 0 0 0 0 0 0 0 0 0 0 0 0 0 0 0 0 0 0 0 0 0 0 0 0 0 0 0 0 0 0 0 0 0 0 0 0 0 0 0 0 0 0 0 0 0 0 0 0 0 0 0 0 0 0 0 0 0 0 0 0 0 0 0 0 0 0 0 0 0 0 0 0 0 0 0 0 0 0 0 0 0 0 0 0 0 0 0 0 0 0 0 0 0 0 0 0 0 0 0 0 0 0 0 0 0 0 0 0 0 0 0 0 0 0 0 0 0 0 0 0 0 0 0 0 0 0 0 0 0 0 0 0 0 0 0 0 0 0 0 0 0 0 0 0 0 0 0 0 0 0 0 0 0 0 0 0 0 0 0 0 0 0 0 0 0 0 0 0 0 0 0 0 0 0 0 0 0 0 0 0 0 0 0 0 0 0 0 0 0 0 0 0 0 0 0 0 0 0 0 0 0 0 0 0 0 0 0 0 0 0 0 0 0 0 0 0 0 0 0 0 0 0 0 0 0 0 0 0 0 0 0 0 0 0 0 0 0 0 0 0 0 0 0 0 0 0 0 0 0 0 0 0 0 0 0 0 
0.02 0.02 0.02 0.02 0.02 0.02 0.02 0.02 0.02 0.02 0.02 0.02 0.02 0.02 0.02 0.02 0.02 0.02 0.02 0.02 0.02 0.02 0.02 0.02 0.02 0.02 0.02 0.02 0.02 0.02 0.02 0.02 0.02 0.02 0.02 0.02 0.02 0.02 0.02 0.02 0.02 0.02 0.02 0.02 0.02 0.02 0.02 0.02 0.02 0.02 0.02 0.02 0.02 0.02 0.02 0.02 0.02 0.02 0.02 0.02 0.02 0.02 0.02 0.02 0.02 0.02 0.02 0.02 0.0200001 0.0200001 0.0200001 0.0200001 0.0200001 0.0200001 0.0200001 0.0200001 0.0200001 0.0200002 0.0200002 0.0200002 0.0200002 0.0200003 0.0200003 0.0200003 0.0200004 0.0200004 0.0200005 0.0200005 0.0200006 0.0200007 0.0200007 0.0200008 0.0200009 0.020001 0.0200012 0.0200013 0.0200014 0.0200016 0.0200018 0.020002 0.0200022 0.0200024 0.0200027 0.020003 0.0200033 0.0200037 0.0200041 0.0200045 0.020005 0.0200055 0.020006 0.0200067 0.0200074 0.0200081 0.020009 0.0200099 0.0200109 0.020012 0.0200132 0.0200146 0.020016 0.0200176 0.0200194 0.0200213 0.0200234 0.0200257 0.0200282 0.020031 0.0200339 0.0200372 0.0200407 0.0200445 0.0200486 0.020053 0.0200578 0.020063 0.0200686 0.0200745 0.0200809 0.0200877 0.020095 0.0201028 0.020111 0.0201197 0.020129 0.0201387 0.0201489 0.0201596 0.0201708 0.0201824 0.0201945 0.0202071 0.02022 0.0202333 0.020247 0.020261 0.0202752 0.0202896 0.0203042 0.0203188 0.0203335 0.0203483 0.020363 0.0203777 0.0203922 0.0204066 0.0204208 0.0204347 0.0204482 0.0204612 0.0204738 0.0204859 0.0204974 0.0205083 0.0205187 0.0205284 0.0205374 0.0205458 0.0205536 0.0205607 0.0205672 0.020573 0.0205782 0.0205828 0.0205868 0.0205902 0.0205931 0.0205955 0.0205973 0.0205987 0.0205997 0.0206001 0.0206002 0.0205998 0.0205991 0.020598 0.0205964 0.0205945 0.0205922 0.0205895 0.0205863 0.0205828 0.0205787 0.0205742 0.0205691 0.0205636 0.0205574 0.0205506 0.0205432 0.0205351 0.0205263 0.0205168 0.0205065 0.0204954 0.0204835 0.0204709 0.0204574 0.0204431 0.0204281 0.0204122 0.0203957 0.0203784 0.0203604 0.0203418 0.0203227 0.0203031 0.0202831 0.0202628 0.0202423 0.0202217 0.0202011 0.0201806 0.0201603 0.0201403 0.0201207 0.0201016 0.020083 0.020065 0.0200475 0.0200306 0.020014 0.0199977 0.0199814 0.0199647 0.0199472 0.0199283 0.0199075 0.019884 0.0198569 0.0198254 0.0197885 0.0197451 0.0196942 0.0196346 0.0195649 0.019484 0.0193902 0.019282 0.0191573 0.0190139 0.0188508 0.0186694 0.0184717 0.0182579 0.0180489 0.0178904 0.017798 0.0176725 0.0173803 0.0169855 0.0165433 0.0160907 0.0155758 0.0150251 0.0144151 0.0137289 0.0129643 0.012147 0.0113128 0.0104742 0.00966256 0.00885673 0.00787585 0.00664025 0.00536459 0.00399911 0.00261925 0.00115658 -0.000266828 -0.00194825 -0.0037413 -0.0056237 -0.0075375 -0.0104737 0 0 0 0 0 0 0 0 0 0 0 0 0 0 0 0 0 0 0 0 0 0 0 0 0 0 0 0 0 0 0 0 0 0 0 0 0 0 0 0 0 0 0 0 0 0 0 0 0 0 0 0 0 0 0 0 0 0 0 0 0 0 0 0 0 0 0 0 0 0 0 0 0 0 0 0 0 0 0 0 0 0 0 0 0 0 0 0 0 0 0 0 0 0 0 0 0 0 0 0 0 0 0 0 0 0 0 0 0 0 0 0 0 0 0 0 0 0 0 0 0 0 0 0 0 0 0 0 0 0 0 0 0 0 0 0 0 0 0 0 0 0 0 0 0 0 0 0 0 0 0 0 0 0 0 0 0 0 0 0 0 0 0 0 0 0 0 0 0 0 0 0 0 0 0 0 0 0 0 0 0 0 0 0 0 0 0 0 0 0 0 0 0 0 0 0 0 0 0 0 0 0 0 0 0 0 0 0 0 0 0 0 0 0 0 0 0 0 0 0 0 0 0 0 0 0 0 0 0 0 0 0 0 0 0 0 0 0 0 0 0 0 0 0 0 0 0 0 0 0 0 0 0 0 0 0 0 0 0 0 0 0 0 0 0 0 0 0 0 0 0 0 0 0 0 0 0 0 0 0 0 0 0 0 0 0 0 0 0 0 0 0 0 0 0 0 0 0 0 0 0 0 0 0 0 0 0 0 0 0 0 0 0 0 0 0 0 0 0 0 0 0 0 0 0 0 -2.1684e-19 
0.02 0.02 0.02 0.02 0.02 0.02 0.02 0.02 0.02 0.02 0.02 0.02 0.02 0.02 0.02 0.02 0.02 0.02 0.02 0.02 0.02 0.02 0.02 0.02 0.02 0.02 0.02 0.02 0.02 0.02 0.02 0.02 0.02 0.02 0.02 0.02 0.02 0.02 0.02 0.02 0.02 0.02 0.02 0.02 0.02 0.02 0.02 0.02 0.02 0.02 0.02 0.02 0.02 0.02 0.02 0.02 0.02 0.02 0.02 0.02 0.02 0.02 0.02 0.02 0.02 0.02 0.02 0.02 0.02 0.0200001 0.0200001 0.0200001 0.0200001 0.0200001 0.0200001 0.0200001 0.0200001 0.0200001 0.0200002 0.0200002 0.0200002 0.0200002 0.0200003 0.0200003 0.0200003 0.0200004 0.0200004 0.0200005 0.0200005 0.0200006 0.0200007 0.0200008 0.0200009 0.020001 0.0200011 0.0200012 0.0200013 0.0200015 0.0200017 0.0200018 0.0200021 0.0200023 0.0200025 0.0200028 0.0200031 0.0200035 0.0200038 0.0200042 0.0200047 0.0200052 0.0200057 0.0200064 0.020007 0.0200078 0.0200086 0.0200095 0.0200104 0.0200115 0.0200127 0.020014 0.0200154 0.020017 0.0200187 0.0200206 0.0200227 0.0200249 0.0200274 0.0200301 0.020033 0.0200361 0.0200396 0.0200433 0.0200474 0.0200518 0.0200565 0.0200616 0.0200671 0.020073 0.0200793 0.020086 0.0200932 0.0201009 0.0201091 0.0201177 0.0201268 0.0201364 0.0201466 0.0201572 0.0201682 0.0201798 0.0201918 0.0202043 0.0202171 0.0202304 0.020244 0.0202579 0.020272 0.0202864 0.0203009 0.0203154 0.02033 0.0203446 0.0203592 0.0203737 0.0203881 0.0204023 0.0204163 0.0204299 0.0204433 0.0204562 0.0204686 0.0204805 0.0204919 0.0205026 0.0205128 0.0205223 0.0205312 0.0205395 0.0205471 0.0205541 0.0205604 0.020566 0.0205711 0.0205755 0.0205794 0.0205827 0.0205854 0.0205877 0.0205894 0.0205906 0.0205914 0.0205918 0.0205917 0.0205912 0.0205904 0.0205891 0.0205875 0.0205855 0.0205831 0.0205803 0.020577 0.0205734 0.0205692 0.0205646 0.0205595 0.0205538 0.0205475 0.0205406 0.0205331 0.0205248 0.0205159 0.0205062 0.0204957 0.0204844 0.0204724 0.0204595 0.0204458 0.0204313 0.0204159 0.0203998 0.0203829 0.0203653 0.020347 0.020328 0.0203085 0.0202884 0.020268 0.0202472 0.0202261 0.0202049 0.0201837 0.0201625 0.0201415 0.0201208 0.0201004 0.0200805 0.0200611 0.0200422 0.0200239 0.0200061 0.0199887 0.0199715 0.0199544 0.0199368 0.0199185 0.0198989 0.0198774 0.0198531 0.0198253 0.0197931 0.0197555 0.0197115 0.0196599 0.0195996 0.0195294 0.0194477 0.0193533 0.0192445 0.0191193 0.0189759 0.0188136 0.0186359 0.0184498 0.0182594 0.0180693 0.0179026 0.0177455 0.0175625 0.0172746 0.0169118 0.0164942 0.0160364 0.0155278 0.0149691 0.0143516 0.0136642 0.0129177 0.0121326 0.0113352 0.010518 0.00963016 0.00875196 0.0077084 0.0065233 0.00526232 0.00393507 0.00256713 0.00113915 -0.000394354 -0.00203678 -0.00376722 -0.0055802 -0.00749253 -0.00962699 -0.0119861 -0.0141015 -0.0164135 -0.0193076 -0.0235863 0 0 0 0 0 0 0 0 0 0 0 0 0 0 0 0 0 0 0 0 0 0 0 0 0 0 0 0 0 0 0 0 0 0 0 0 0 0 0 0 0 0 0 0 0 0 0 0 0 0 0 0 0 0 0 0 0 0 0 0 0 0 0 0 0 0 0 0 0 0 0 0 0 0 0 0 0 0 0 0 0 0 0 0 0 0 0 0 0 0 0 0 0 0 0 0 0 0 0 0 0 0 0 0 0 0 0 0 0 0 0 0 0 0 0 0 0 0 0 0 0 0 0 0 0 0 0 0 0 0 0 0 0 0 0 0 0 0 0 0 0 0 0 0 0 0 0 0 0 0 0 0 0 0 0 0 0 0 0 0 0 0 0 0 0 0 0 0 0 0 0 0 0 0 0 0 0 0 0 0 0 0 0 0 0 0 0 0 0 0 0 0 0 0 0 0 0 0 0 0 0 0 0 0 0 0 0 0 0 0 0 0 0 0 0 0 0 0 0 0 0 0 0 0 0 0 0 0 0 0 0 0 0 0 0 0 0 0 0 0 0 0 0 0 0 0 0 0 0 0 0 0 0 0 0 0 0 0 0 0 0 0 0 0 0 0 0 0 0 0 0 0 0 0 0 0 0 0 0 0 0 0 0 0 0 0 0 0 0 0 0 0 0 0 0 0 0 0 0 0 0 0 0 0 0 0 0 0 0 0 0 0 0 0 0 0 0 0 0 0 -0.0049242 -4.33681e-19 
0.02 0.02 0.02 0.02 0.02 0.02 0.02 0.02 0.02 0.02 0.02 0.02 0.02 0.02 0.02 0.02 0.02 0.02 0.02 0.02 0.02 0.02 0.02 0.02 0.02 0.02 0.02 0.02 0.02 0.02 0.02 0.02 0.02 0.02 0.02 0.02 0.02 0.02 0.02 0.02 0.02 0.02 0.02 0.02 0.02 0.02 0.02 0.02 0.02 0.02 0.02 0.02 0.02 0.02 0.02 0.02 0.02 0.02 0.02 0.02 0.02 0.02 0.02 0.02 0.02 0.02 0.02 0.02 0.02 0.02 0.02 0.0200001 0.0200001 0.0200001 0.0200001 0.0200001 0.0200001 0.0200001 0.0200001 0.0200002 0.0200002 0.0200002 0.0200002 0.0200003 0.0200003 0.0200003 0.0200004 0.0200004 0.0200005 0.0200006 0.0200006 0.0200007 0.0200008 0.0200009 0.020001 0.0200011 0.0200012 0.0200014 0.0200015 0.0200017 0.0200019 0.0200021 0.0200024 0.0200026 0.0200029 0.0200032 0.0200036 0.020004 0.0200044 0.0200049 0.0200054 0.020006 0.0200066 0.0200074 0.0200081 0.020009 0.0200099 0.020011 0.0200121 0.0200134 0.0200148 0.0200163 0.020018 0.0200198 0.0200218 0.020024 0.0200264 0.020029 0.0200319 0.020035 0.0200384 0.020042 0.020046 0.0200503 0.020055 0.02006 0.0200654 0.0200712 0.0200774 0.020084 0.0200911 0.0200987 0.0201067 0.0201152 0.0201242 0.0201337 0.0201437 0.0201542 0.0201651 0.0201766 0.0201884 0.0202008 0.0202135 0.0202266 0.0202401 0.0202538 0.0202679 0.0202821 0.0202965 0.0203109 0.0203254 0.0203398 0.0203542 0.0203685 0.0203827 0.0203967 0.0204104 0.0204238 0.0204369 0.0204495 0.0204617 0.0204734 0.0204846 0.0204951 0.0205051 0.0205144 0.0205231 0.0205311 0.0205385 0.0205453 0.0205514 0.0205568 0.0205617 0.0205659 0.0205696 0.0205727 0.0205752 0.0205773 0.0205788 0.0205799 0.0205805 0.0205807 0.0205805 0.0205799 0.0205789 0.0205775 0.0205757 0.0205736 0.0205711 0.0205682 0.0205648 0.0205611 0.0205568 0.0205521 0.0205469 0.0205411 0.0205347 0.0205277 0.02052 0.0205116 0.0205025 0.0204926 0.020482 0.0204705 0.0204582 0.0204451 0.0204311 0.0204163 0.0204006 0.0203842 0.0203669 0.0203489 0.0203301 0.0203107 0.0202907 0.0202701 0.0202491 0.0202277 0.020206 0.020184 0.0201621 0.0201401 0.0201182 0.0200966 0.0200754 0.0200545 0.0200341 0.0200143 0.019995 0.0199762 0.0199578 0.0199396 0.0199215 0.019903 0.0198837 0.0198632 0.0198407 0.0198156 0.0197869 0.0197539 0.0197155 0.0196707 0.0196183 0.0195573 0.0194862 0.0194037 0.0193085 0.019199 0.0190735 0.0189306 0.0187703 0.0185972 0.0184209 0.0182491 0.0180795 0.0179042 0.0177227 0.0174901 0.0171953 0.0168399 0.016431 0.0159734 0.0154672 0.0149045 0.0142847 0.0136051 0.012879 0.0121159 0.0113335 0.0105201 0.00964952 0.00866899 0.00758914 0.00642072 0.00517364 0.00386082 0.00248721 0.0010377 -0.00051749 -0.00217171 -0.0038773 -0.00567181 -0.00764156 -0.00967124 -0.0118486 -0.0139459 -0.0162234 -0.0180147 -0.0215285 -0.0240362 -0.0261831 -0.0292062 -0.0355049 0 0 0 0 0 0 0 0 0 0 0 0 0 0 0 0 0 0 0 0 0 0 0 0 0 0 0 0 0 0 0 0 0 0 0 0 0 0 0 0 0 0 0 0 0 0 0 0 0 0 0 0 0 0 0 0 0 0 0 0 0 0 0 0 0 0 0 0 0 0 0 0 0 0 0 0 0 0 0 0 0 0 0 0 0 0 0 0 0 0 0 0 0 0 0 0 0 0 0 0 0 0 0 0 0 0 0 0 0 0 0 0 0 0 0 0 0 0 0 0 0 0 0 0 0 0 0 0 0 0 0 0 0 0 0 0 0 0 0 0 0 0 0 0 0 0 0 0 0 0 0 0 0 0 0 0 0 0 0 0 0 0 0 0 0 0 0 0 0 0 0 0 0 0 0 0 0 0 0 0 0 0 0 0 0 0 0 0 0 0 0 0 0 0 0 0 0 0 0 0 0 0 0 0 0 0 0 0 0 0 0 0 0 0 0 0 0 0 0 0 0 0 0 0 0 0 0 0 0 0 0 0 0 0 0 0 0 0 0 0 0 0 0 0 0 0 0 0 0 0 0 0 0 0 0 0 0 0 0 0 0 0 0 0 0 0 0 0 0 0 0 0 0 0 0 0 0 0 0 0 0 0 0 0 0 0 0 0 0 0 0 0 0 0 0 0 0 0 0 0 0 0 0 0 0 0 0 0 0 0 0 0 0 0 0 -0.0173833 -0.00889165 -1.51788e-18 
0.02 0.02 0.02 0.02 0.02 0.02 0.02 0.02 0.02 0.02 0.02 0.02 0.02 0.02 0.02 0.02 0.02 0.02 0.02 0.02 0.02 0.02 0.02 0.02 0.02 0.02 0.02 0.02 0.02 0.02 0.02 0.02 0.02 0.02 0.02 0.02 0.02 0.02 0.02 0.02 0.02 0.02 0.02 0.02 0.02 0.02 0.02 0.02 0.02 0.02 0.02 0.02 0.02 0.02 0.02 0.02 0.02 0.02 0.02 0.02 0.02 0.02 0.02 0.02 0.02 0.02 0.02 0.02 0.02 0.02 0.02 0.02 0.0200001 0.0200001 0.0200001 0.0200001 0.0200001 0.0200001 0.0200001 0.0200001 0.0200002 0.0200002 0.0200002 0.0200002 0.0200003 0.0200003 0.0200003 0.0200004 0.0200004 0.0200005 0.0200006 0.0200006 0.0200007 0.0200008 0.0200009 0.020001 0.0200011 0.0200012 0.0200014 0.0200016 0.0200017 0.0200019 0.0200022 0.0200024 0.0200027 0.020003 0.0200033 0.0200037 0.0200041 0.0200046 0.0200051 0.0200056 0.0200062 0.0200069 0.0200077 0.0200085 0.0200094 0.0200104 0.0200115 0.0200127 0.0200141 0.0200155 0.0200172 0.0200189 0.0200209 0.020023 0.0200253 0.0200279 0.0200307 0.0200337 0.020037 0.0200406 0.0200445 0.0200487 0.0200532 0.0200581 0.0200634 0.0200691 0.0200752 0.0200817 0.0200887 0.0200961 0.020104 0.0201124 0.0201212 0.0201306 0.0201404 0.0201507 0.0201615 0.0201727 0.0201844 0.0201966 0.0202091 0.020222 0.0202353 0.0202489 0.0202627 0.0202768 0.020291 0.0203053 0.0203196 0.0203339 0.0203481 0.0203621 0.020376 0.0203897 0.0204032 0.0204163 0.0204291 0.0204414 0.0204533 0.0204647 0.0204756 0.0204859 0.0204955 0.0205046 0.020513 0.0205208 0.0205279 0.0205344 0.0205402 0.0205454 0.02055 0.020554 0.0205574 0.0205603 0.0205626 0.0205644 0.0205657 0.0205666 0.020567 0.020567 0.0205666 0.0205658 0.0205646 0.020563 0.0205611 0.0205589 0.0205562 0.0205532 0.0205497 0.0205458 0.0205415 0.0205367 0.0205313 0.0205254 0.0205189 0.0205118 0.020504 0.0204954 0.0204862 0.0204761 0.0204653 0.0204536 0.020441 0.0204276 0.0204133 0.0203982 0.0203822 0.0203653 0.0203476 0.0203291 0.0203099 0.0202899 0.0202693 0.0202481 0.0202264 0.0202043 0.0201818 0.0201591 0.0201362 0.0201133 0.0200905 0.0200679 0.0200456 0.0200237 0.0200023 0.0199813 0.0199609 0.019941 0.0199215 0.0199022 0.0198829 0.0198633 0.019843 0.0198214 0.0197978 0.0197716 0.019742 0.019708 0.0196687 0.0196229 0.0195697 0.0195078 0.0194358 0.0193524 0.0192563 0.019146 0.0190205 0.0188789 0.018722 0.0185541 0.0183841 0.0182199 0.0180585 0.0178824 0.0176734 0.0174257 0.0171234 0.0167668 0.0163595 0.0159032 0.0153964 0.0148334 0.0142158 0.0135472 0.0128392 0.0120938 0.0113097 0.0104793 0.00957454 0.00858143 0.00749808 0.00633194 0.00508947 0.0037761 0.00239151 0.000923329 -0.000635908 -0.00229068 -0.00402912 -0.00585238 -0.00774738 -0.00983779 -0.011888 -0.014004 -0.0163334 -0.0188033 -0.0212221 -0.023661 -0.0254308 -0.0283407 -0.0320756 -0.0346482 -0.0366803 -0.0383372 -0.0417373 -0.049871 0 0 0 0 0 0 0 0 0 0 0 0 0 0 0 0 0 0 0 0 0 0 0 0 0 0 0 0 0 0 0 0 0 0 0 0 0 0 0 0 0 0 0 0 0 0 0 0 0 0 0 0 0 0 0 0 0 0 0 0 0 0 0 0 0 0 0 0 0 0 0 0 0 0 0 0 0 0 0 0 0 0 0 0 0 0 0 0 0 0 0 0 0 0 0 0 0 0 0 0 0 0 0 0 0 0 0 0 0 0 0 0 0 0 0 0 0 0 0 0 0 0 0 0 0 0 0 0 0 0 0 0 0 0 0 0 0 0 0 0 0 0 0 0 0 0 0 0 0 0 0 0 0 0 0 0 0 0 0 0 0 0 0 0 0 0 0 0 0 0 0 0 0 0 0 0 0 0 0 0 0 0 0 0 0 0 0 0 0 0 0 0 0 0 0 0 0 0 0 0 0 0 0 0 0 0 0 0 0 0 0 0 0 0 0 0 0 0 0 0 0 0 0 0 0 0 0 0 0 0 0 0 0 0 0 0 0 0 0 0 0 0 0 0 0 0 0 0 0 0 0 0 0 0 0 0 0 0 0 0 0 0 0 0 0 0 0 0 0 0 0 0 0 0 0 0 0 0 0 0 0 0 0 0 0 0 0 0 0 0 0 0 0 0 0 0 0 0 0 0 0 0 0 0 0 0 0 0 -0.0359703 -0.0300186 -0.0215835 -0.0118018 1.73472e-18 
0.02 0.02 0.02 0.02 0.02 0.02 0.02 0.02 0.02 0.02 0.02 0.02 0.02 0.02 0.02 0.02 0.02 0.02 0.02 0.02 0.02 0.02 0.02 0.02 0.02 0.02 0.02 0.02 0.02 0.02 0.02 0.02 0.02 0.02 0.02 0.02 0.02 0.02 0.02 0.02 0.02 0.02 0.02 0.02 0.02 0.02 0.02 0.02 0.02 0.02 0.02 0.02 0.02 0.02 0.02 0.02 0.02 0.02 0.02 0.02 0.02 0.02 0.02 0.02 0.02 0.02 0.02 0.02 0.02 0.02 0.02 0.02 0.02 0.02 0.0200001 0.0200001 0.0200001 0.0200001 0.0200001 0.0200001 0.0200001 0.0200002 0.0200002 0.0200002 0.0200002 0.0200003 0.0200003 0.0200003 0.0200004 0.0200004 0.0200005 0.0200006 0.0200006 0.0200007 0.0200008 0.0200009 0.020001 0.0200011 0.0200013 0.0200014 0.0200016 0.0200018 0.020002 0.0200022 0.0200025 0.0200027 0.020003 0.0200034 0.0200038 0.0200042 0.0200047 0.0200052 0.0200058 0.0200064 0.0200072 0.0200079 0.0200088 0.0200098 0.0200108 0.020012 0.0200133 0.0200147 0.0200163 0.020018 0.0200199 0.0200219 0.0200242 0.0200267 0.0200293 0.0200323 0.0200355 0.020039 0.0200428 0.0200469 0.0200513 0.0200561 0.0200612 0.0200668 0.0200727 0.0200791 0.0200859 0.0200932 0.0201009 0.0201091 0.0201178 0.020127 0.0201366 0.0201467 0.0201573 0.0201683 0.0201798 0.0201917 0.0202041 0.0202168 0.0202298 0.0202431 0.0202568 0.0202706 0.0202846 0.0202986 0.0203127 0.0203268 0.0203407 0.0203545 0.0203681 0.0203815 0.0203946 0.0204074 0.0204198 0.0204318 0.0204434 0.0204545 0.020465 0.0204749 0.0204843 0.020493 0.0205011 0.0205086 0.0205154 0.0205215 0.0205271 0.020532 0.0205363 0.0205399 0.0205431 0.0205456 0.0205476 0.0205492 0.0205502 0.0205508 0.020551 0.0205507 0.0205501 0.020549 0.0205477 0.0205459 0.0205438 0.0205414 0.0205385 0.0205354 0.0205318 0.0205278 0.0205233 0.0205183 0.0205129 0.0205069 0.0205002 0.020493 0.020485 0.0204763 0.0204669 0.0204566 0.0204455 0.0204336 0.0204208 0.0204071 0.0203925 0.0203769 0.0203605 0.0203432 0.020325 0.020306 0.0202861 0.0202655 0.0202442 0.0202223 0.0201998 0.0201768 0.0201534 0.0201298 0.020106 0.0200821 0.0200583 0.0200347 0.0200113 0.0199883 0.0199657 0.0199436 0.019922 0.0199008 0.0198801 0.0198596 0.0198391 0.0198182 0.0197966 0.0197738 0.019749 0.0197217 0.0196909 0.0196559 0.0196155 0.0195688 0.0195145 0.0194516 0.0193786 0.0192943 0.0191972 0.0190864 0.0189612 0.0188216 0.0186689 0.0185068 0.0183412 0.0181771 0.0180117 0.0178319 0.0176183 0.0173578 0.0170469 0.0166876 0.0162808 0.0158249 0.0153176 0.0147568 0.0141448 0.0134864 0.0127889 0.0120516 0.0112653 0.0104163 0.00949655 0.00849347 0.00740611 0.0062395 0.00499788 0.00368112 0.00228376 0.000803144 -0.000766037 -0.00242599 -0.00418661 -0.00603682 -0.00798211 -0.0099907 -0.0120615 -0.0141898 -0.0165293 -0.0188611 -0.0212634 -0.0236899 -0.0259494 -0.02821 -0.0314545 -0.0338207 -0.0361013 -0.0374624 -0.0405527 -0.0448251 -0.0471436 -0.0484826 -0.0494803 -0.0500653 -0.0525469 -0.0591601 -0.0581824 0 0 0 0 0 0 0 0 0 0 0 0 0 0 0 0 0 0 0 0 0 0 0 0 0 0 0 0 0 0 0 0 0 0 0 0 0 0 0 0 0 0 0 0 0 0 0 0 0 0 0 0 0 0 0 0 0 0 0 0 0 0 0 0 0 0 0 0 0 0 0 0 0 0 0 0 0 0 0 0 0 0 0 0 0 0 0 0 0 0 0 0 0 0 0 0 0 0 0 0 0 0 0 0 0 0 0 0 0 0 0 0 0 0 0 0 0 0 0 0 0 0 0 0 0 0 0 0 0 0 0 0 0 0 0 0 0 0 0 0 0 0 0 0 0 0 0 0 0 0 0 0 0 0 0 0 0 0 0 0 0 0 0 0 0 0 0 0 0 0 0 0 0 0 0 0 0 0 0 0 0 0 0 -0.0486646 -0.0528366 -0.0546851 -0.0550464 -0.0546723 -0.0549369 -0.0549956 -0.0547531 -0.0545621 -0.0540697 -0.0535512 -0.0530963 -0.0526583 -0.0524005 -0.0522975 -0.0522766 -0.0523229 -0.0523837 -0.0524417 -0.0524868 -0.0525148 -0.0525263 -0.0525252 -0.0525164 -0.0525046 -0.0524933 -0.052485 -0.0524813 -0.0524827 -0.0524893 -0.0525007 -0.0525163 -0.0525354 -0.0525576 -0.0525826 -0.0526102 -0.0526408 -0.0526746 -0.0527129 -0.0527579 -0.0528131 -0.0528826 -0.0529694 -0.0530751 -0.0532023 -0.0533667 -0.0535675 -0.0538486 -0.0541958 -0.0547652 -0.0564923 -0.0587532 -0.066259 -0.0593845 0 0 0 0 0 0 0 0 0 0 0 0 0 0 0 0 0 0 0 0 0 0 0 0 0 0 0 0 0 0 0 0 0 0 0 0 0 0 0 0 0 0 0 0 0 0 0 0 0 0 0 0 0 0 0 0 0 -0.0486366 -0.052381 -0.0533418 -0.0531329 -0.0516024 -0.0485426 -0.0448123 -0.0392208 -0.0321318 -0.0237087 -0.0134697 -2.81893e-18 