# vtk DataFile Version 2.0
iteration 648
ASCII

DATASET STRUCTURED_POINTS
DIMENSIONS 621 64 1
ORIGIN 0 0 0
SPACING 0.00161031 0.00161031 0.00161031

POINT_DATA 39744
SCALARS P float 1
LOOKUP_TABLE default
0 0 0 0 0 0 0 0 0 0 0 0 0 0 0 0 0 0 0 0 0 0 0 0 0 0 0 0 0 0 0 0 0 0 0 0 0 0 0 0 0 0 0 0 0 0 0 0 0 0 0 0 0 0 0 0 0 0 0 0 0 0 0 0 0 0 0 0 0 0 0 0 0 0 0 0 0 0 0 0 0 0 0 0 0 0 0 0 0 0 0 0 0 0 0 0 0 0 0 0 0 0 0 0 0 0 0 0 0 0 0 0 0 0 0 0 0 0 0 0 0 0 0 0 0 0 0 0 0 0 0 0 0 0 0 0 0 0 0 0 0 0 0 0 0 0 0 0 0 0 0 0 0 0 0 0 0 0 0 0 0 0 0 0 0 0 0 0 0 0 0 0 0 0 0 0 0 0 0 0 0 0 0 0 0 0 0 0 0 0 0 0 0 0 0 0 0 0 0 0 0 0 0 0 0 0 0 0 0 0 0 0 0 0 0 0 0 0 0 0 0 0 0 0 0 0 0 0 0 0 0 0 0 0 0 0 0 0 0 0 0 0 0 0 0 0 0 0 0 0 0 0 0 0 0 0 0 0 0 0 0 0 0 0 0 0 0 0 0 0 0 0 0 0 0 0 0 0 0 0 0 0 0 0 0 0 0 0 0 0 0 0 0 0 0 0 0 0 0 0 0 0 0 0 0 0 0 0 0 0 0 0 0 0 0 0 0 0 0 0 0 0 0 0 0 0 0 0 0 0 0 0 0 0 0 0 0 0 0 0 0 0 0 0 0 0 0 0 0 0 0 0 0 0 0 0 0 0 0 0 0 0 0 0 0 0 0 0 0 0 0 0 0 0 0 0 0 0 0 0 0 0 0 0 0 0 0 0 0 0 0 0 0 0 0 0 0 0 0 0 0 0 0 0 0 0 0 0 0 0 0 0 0 0 0 0 0 0 0 0 0 0 0 0 0 0 0 0 0 0 0 0 0 0 0 0 0 0 0 0 0 0 0 0 0 0 0 0 0 0 0 0 0 0 0 0 0 0 0 0 0 0 0 0 0 0 0 0 0 0 0 0 0 0 0 0 0 0 0 0 0 0 0 0 0 0 0 0 0 0 0 0 0 0 0 0 0 0 0 0 0 0 0 0 0 0 0 0 0 0 0 0 0 0 0 0 0 0 0 0 0 0 0 0 0 0 0 0 0 0 0 0 0 0 0 0 0 0 0 0 0 0 0 0 0 0 0 0 0 0 0 0 0 0 0 0 0 0 0 0 0 0 0 0 0 0 0 0 0 0 0 0 0 0 0 0 0 0 0 0 0 0 0 0 0 0 0 0 0 0 0 0 0 0 0 0 0 0 0 0 0 0 0 0 0 0 0 0 0 0 0 0 0 0 0 0 0 0 0 0 0 
0.02 0.02 0.02 0.02 0.02 0.02 0.02 0.02 0.02 0.02 0.02 0.02 0.02 0.02 0.02 0.02 0.02 0.02 0.0199999 0.0199999 0.0199999 0.0199999 0.0199998 0.0199997 0.0199997 0.0199996 0.0199994 0.0199993 0.0199991 0.0199989 0.0199986 0.0199983 0.019998 0.0199975 0.019997 0.0199964 0.0199958 0.019995 0.0199941 0.0199931 0.0199919 0.0199906 0.0199891 0.0199875 0.0199856 0.0199835 0.0199812 0.0199787 0.0199759 0.0199728 0.0199693 0.0199656 0.0199615 0.019957 0.0199521 0.0199467 0.0199409 0.0199345 0.0199276 0.0199202 0.0199121 0.0199034 0.019894 0.0198839 0.0198731 0.0198616 0.0198492 0.019836 0.019822 0.0198072 0.0197915 0.0197749 0.0197575 0.0197392 0.0197199 0.0196999 0.0196789 0.0196571 0.0196344 0.0196109 0.0195866 0.0195614 0.0195354 0.0195087 0.0194811 0.0194528 0.0194237 0.0193937 0.019363 0.0193313 0.0192984 0.0192585 0.0192157 0.0191725 0.0191303 0.0190883 0.0190461 0.0190032 0.0189593 0.0189144 0.0188688 0.0188229 0.0187774 0.0187333 0.018692 0.0186547 0.0186231 0.0185982 0.0185807 0.0185701 0.0185643 0.0185597 0.0185517 0.0185348 0.0185035 0.0184519 0.018374 0.0182649 0.0181158 0.0179395 0.0177867 0.0176053 0.0182876 0.0210344 0 0 0 0 0 0 0 0 0 0 0 0 0 0 0 0 0 0 0 0 0 0 0 0 0 0 0 0 0 0 0 0 0 0 0 0 0 0 0 0 0 0 0 0 0 0 0 0 0 0 0 0 0 0 0 0 0 0 0 0 0 0 0 0 0 0 0 0 0 0 0 0 0 0 0 0 0 0 0 0 0 0 0 0 0 0 0 0 0 0 0 0 0 0 0 0 0 0 0 0 0 0 0 0 0 0 0 0 0 0 0 0 0 0 0 0 0 0 0 0 0 0 0 0 0 0 0 0 0 0 0 0 0 0 0 0 0 0 0 0 0 0 0 0 0 0 0 0 0 0 0 0 0 0 0 0 0 0 0 0 0 0 0 0 0 0 0 0 0 0 0 0 0 0 0 0 0 0 0 0 0 0 0 0 0 0 0 0 0 0 0 0 0 0 0 0 0 0 0 0 0 0 0 0 0 0 0 0 0 0 0 0 0 0 0 0 0 0 0 0 0 0 0 0 0 0 0 0 0 0 0 0 0 0 0 0 0 0 0 0 0 0 0 0 0 0 0 0 0 0 0 0 0 0 0 0 0 0 0 0 0 0 0 0 0 0 0 0 0 0 0 0 0 0 0 0 0 0 0 0 0 0 0 0 0 0 0 0 0 0 0 0 0 0 0 0 0 0 0 0 0 0 0 0 0 0 0 0 0 0 0 0 0 0 0 0 0 0 0 0 0 0 0 0 0 0 0 0 0 0 0 0 0 0 0 0 0 0 0 0 0 0 0 0 0 0 0 0 0 0 0 0 0 0 0 0 0 0 0 0 0 0 0 0 0 0 0 0 0 0 0 0 0 0 0 0 0 0 0 0 0 0 0 0 0 0 0 0 0 0 0 0 0 0 0 0 0 0 0 0 0 0 0 0 0 0 0 0 0 0 0 0 0 0 0 0 0 0 0 0 0 0 0 0 0 0 0 0 0 0 0 0 0 0 0 0 0 0 0 0 0 0 0 0 0 0 0 0 0 0 0 0 0 0 0 0 0 0 0 0 0 0 0 0 0 0 0 0 0 0 0 0 0 0 0 0 0 0 0 0 0 0 0 0 0 0 0 0 0 0 0 0 0 0 0 0 0 
0.02 0.02 0.02 0.02 0.02 0.02 0.02 0.02 0.02 0.02 0.02 0.02 0.02 0.02 0.02 0.02 0.02 0.02 0.0199999 0.0199999 0.0199999 0.0199998 0.0199998 0.0199997 0.0199997 0.0199996 0.0199994 0.0199993 0.0199991 0.0199989 0.0199986 0.0199983 0.019998 0.0199975 0.019997 0.0199965 0.0199958 0.019995 0.0199941 0.0199931 0.019992 0.0199906 0.0199892 0.0199875 0.0199857 0.0199836 0.0199814 0.0199788 0.0199761 0.019973 0.0199696 0.0199659 0.0199618 0.0199573 0.0199524 0.0199471 0.0199413 0.019935 0.0199282 0.0199208 0.0199127 0.0199041 0.0198947 0.0198847 0.0198739 0.0198624 0.0198501 0.0198369 0.019823 0.0198081 0.0197924 0.0197759 0.0197584 0.01974 0.0197208 0.0197006 0.0196796 0.0196576 0.0196348 0.0196111 0.0195866 0.0195612 0.0195349 0.0195079 0.01948 0.0194512 0.0194217 0.0193913 0.01936 0.0193277 0.0192942 0.0192575 0.0192155 0.0191725 0.0191293 0.0190861 0.0190425 0.0189984 0.0189532 0.0189072 0.0188605 0.0188136 0.0187672 0.0187222 0.01868 0.0186419 0.0186095 0.0185839 0.0185656 0.0185541 0.0185473 0.0185418 0.0185328 0.018515 0.0184831 0.018431 0.0183531 0.0182466 0.0181052 0.0179529 0.0178439 0.0175888 0.0177459 0.0185143 0.0180977 0.0175737 0.0171624 0.016738 0.016195 0.0161212 0.0182191 0.0167254 0 0 0 0 0 0 0 0 0 0 0 0 0 0 0 0 0 0 0 0 0 0 0 0 0 0 0 0 0 0 0 0 0 0 0 0 0 0 0 0 0 0 0 0 0 0 0 0 0 0 0 0 0 0 0 0 0 0 0 0 0 0 0 0 0 0 0 0 0 0 0 0 0 0 0 0 0 0 0 0 0 0 0 0 0 0 0 0 0 0 0 0 0 0 0 0 0 0 0 0 0 0 0 0 0 0 0 0 0 0 0 0 0 0 0 0 0 0 0 0 0 0 0 0 0 0 0 0 0 0 0 0 0 0 0 0 0 0 0 0 0 0 0 0 0 0 0 0 0 0 0 0 0 0 0 0 0 0 0 0 0 0 0 0 0 0 0 0 0 0 0 0 0 0 0 0 0 0 0 0 0 0 0 0 0 0 0 0 0 0 0 0 0 0 0 0 0 0 0 0 0 0 0 0 0 0 0 0 0 0 0 0 0 0 0 0 0 0 0 0 0 0 0 0 0 0 0 0 0 0 0 0 0 0 0 0 0 0 0 0 0 0 0 0 0 0 0 0 0 0 0 0 0 0 0 0 0 0 0 0 0 0 0 0 0 0 0 0 0 0 0 0 0 0 0 0 0 0 0 0 0 0 0 0 0 0 0 0 0 0 0 0 0 0 0 0 0 0 0 0 0 0 0 0 0 0 0 0 0 0 0 0 0 0 0 0 0 0 0 0 0 0 0 0 0 0 0 0 0 0 0 0 0 0 0 0 0 0 0 0 0 0 0 0 0 0 0 0 0 0 0 0 0 0 0 0 0 0 0 0 0 0 0 0 0 0 0 0 0 0 0 0 0 0 0 0 0 0 0 0 0 0 0 0 0 0 0 0 0 0 0 0 0 0 0 0 0 0 0 0 0 0 0 0 0 0 0 0 0 0 0 0 0 0 0 0 0 0 0 0 0 0 0 0 0 0 0 0 0 0 0 0 0 0 0 0 0 0 0 0 0 0 0 0 0 0 0 0 0 0 0 0 0 0 0 0 0 0 0 0 0 0 0 0 0 0 0 0 0 0 0 0 0 0 0 0 0 0 0 0 0 0 0 0 0 0 0 0 0 
0.02 0.02 0.02 0.02 0.02 0.02 0.02 0.02 0.02 0.02 0.02 0.02 0.02 0.02 0.02 0.02 0.02 0.02 0.0199999 0.0199999 0.0199999 0.0199998 0.0199998 0.0199997 0.0199996 0.0199995 0.0199994 0.0199993 0.0199991 0.0199989 0.0199986 0.0199983 0.0199979 0.0199975 0.019997 0.0199964 0.0199957 0.019995 0.0199941 0.019993 0.0199919 0.0199906 0.0199891 0.0199875 0.0199856 0.0199836 0.0199813 0.0199788 0.019976 0.0199729 0.0199695 0.0199658 0.0199617 0.0199573 0.0199524 0.0199471 0.0199413 0.019935 0.0199282 0.0199208 0.0199128 0.0199042 0.0198949 0.0198849 0.0198741 0.0198626 0.0198503 0.0198372 0.0198233 0.0198085 0.0197928 0.0197763 0.0197588 0.0197405 0.0197212 0.019701 0.01968 0.019658 0.0196351 0.0196114 0.0195868 0.0195613 0.0195349 0.0195076 0.0194795 0.0194506 0.0194207 0.01939 0.0193583 0.0193257 0.0192917 0.0192554 0.0192155 0.0191725 0.0191282 0.0190832 0.0190377 0.0189915 0.0189444 0.0188965 0.0188479 0.0187991 0.0187507 0.0187039 0.0186597 0.0186198 0.0185856 0.0185583 0.0185384 0.0185253 0.0185171 0.0185101 0.0184997 0.0184807 0.018448 0.0183957 0.0183193 0.0182201 0.0180991 0.0179756 0.0179361 0.0178516 0.0176852 0.0179745 0.0176795 0.0173503 0.0169182 0.0165248 0.016116 0.0159859 0.0163021 0.0162595 0.0162046 0.0194296 0 0 0.00478105 0 0 0 0 0 0 0 0 0 0 0 0 0 0 0 0 0 0 0 0 0 0 0 0 0 0 0 0 0 0 0 0 0 0 0 0 0 0 0 0 0 0 0 0 0 0 0 0 0 0 0 0 0 0 0 0 0 0 0 0 0 0 0 0 0 0 0 0 0 0 0 0 0 0 0 0 0 0 0 0 0 0 0 0 0 0 0 0 0 0 0 0 0 0 0 0 0 0 0 0 0 0 0 0 0 0 0 0 0 0 0 0 0 0 0 0 0 0 0 0 0 0 0 0 0 0 0 0 0 0 0 0 0 0 0 0 0 0 0 0 0 0 0 0 0 0 0 0 0 0 0 0 0 0 0 0 0 0 0 0 0 0 0 0 0 0 0 0 0 0 0 0 0 0 0 0 0 0 0 0 0 0 0 0 0 0 0 0 0 0 0 0 0 0 0 0 0 0 0 0 0 0 0 0 0 0 0 0 0 0 0 0 0 0 0 0 0 0 0 0 0 0 0 0 0 0 0 0 0 0 0 0 0 0 0 0 0 0 0 0 0 0 0 0 0 0 0 0 0 0 0 0 0 0 0 0 0 0 0 0 0 0 0 0 0 0 0 0 0 0 0 0 0 0 0 0 0 0 0 0 0 0 0 0 0 0 0 0 0 0 0 0 0 0 0 0 0 0 0 0 0 0 0 0 0 0 0 0 0 0 0 0 0 0 0 0 0 0 0 0 0 0 0 0 0 0 0 0 0 0 0 0 0 0 0 0 0 0 0 0 0 0 0 0 0 0 0 0 0 0 0 0 0 0 0 0 0 0 0 0 0 0 0 0 0 0 0 0 0 0 0 0 0 0 0 0 0 0 0 0 0 0 0 0 0 0 0 0 0 0 0 0 0 0 0 0 0 0 0 0 0 0 0 0 0 0 0 0 0 0 0 0 0 0 0 0 0 0 0 0 0 0 0 0 0 0 0 0 0 0 0 0 0 0 0 0 0 0 0 0 0 0 0 0 0 0 0 0 0 0 0 0 0 0 0 0 0 0 0 0 0 0 0 0 0 0 0 0 0 0 0 0 0 0 0 0 0 0 0 0 0 0 0 -8.13152e-20 
0.02 0.02 0.02 0.02 0.02 0.02 0.02 0.02 0.02 0.02 0.02 0.02 0.02 0.02 0.02 0.02 0.02 0.0199999 0.0199999 0.0199999 0.0199999 0.0199998 0.0199998 0.0199997 0.0199996 0.0199995 0.0199994 0.0199992 0.0199991 0.0199988 0.0199986 0.0199983 0.0199979 0.0199975 0.019997 0.0199964 0.0199957 0.0199949 0.019994 0.019993 0.0199918 0.0199905 0.0199891 0.0199874 0.0199856 0.0199835 0.0199813 0.0199787 0.019976 0.0199729 0.0199695 0.0199658 0.0199618 0.0199574 0.0199525 0.0199472 0.0199415 0.0199353 0.0199285 0.0199211 0.0199132 0.0199046 0.0198954 0.0198854 0.0198748 0.0198633 0.0198511 0.0198381 0.0198243 0.0198095 0.019794 0.0197775 0.0197601 0.0197419 0.0197227 0.0197026 0.0196816 0.0196597 0.0196368 0.019613 0.0195884 0.0195628 0.0195363 0.0195089 0.0194806 0.0194514 0.0194212 0.0193901 0.019358 0.0193247 0.0192902 0.0192537 0.0192143 0.0191716 0.0191265 0.0190799 0.0190322 0.0189835 0.0189339 0.0188833 0.0188321 0.0187806 0.0187295 0.0186799 0.018633 0.0185904 0.0185535 0.0185235 0.018501 0.0184853 0.0184746 0.0184653 0.0184527 0.0184318 0.0183981 0.0183467 0.0182744 0.0181871 0.0180905 0.0179944 0.0179476 0.0179397 0.0179346 0.0177573 0.0174623 0.0171449 0.0167552 0.0163885 0.0160647 0.0159314 0.0158418 0.0155756 0.0152798 0.0156538 0.0137059 0.0087699 0.00445297 0.00137951 -0.000889554 -0.00317997 0 0 0 0 0 0 0 0 0 0 0 0 0 0 0 0 0 0 0 0 0 0 0 0 0 0 0 0 0 0 0 0 0 0 0 0 0 0 0 0 0 0 0 0 0 0 0 0 0 0 0 0 0 0 0 0 0 0 0 0 0 0 0 0 0 0 0 0 0 0 0 0 0 0 0 0 0 0 0 0 0 0 0 0 0 0 0 0 0 0 0 0 0 0 0 0 0 0 0 0 0 0 0 0 0 0 0 0 0 0 0 0 0 0 0 0 0 0 0 0 0 0 0 0 0 0 0 0 0 0 0 0 0 0 0 0 0 0 0 0 0 0 0 0 0 0 0 0 0 0 0 0 0 0 0 0 0 0 0 0 0 0 0 0 0 0 0 0 0 0 0 0 0 0 0 0 0 0 0 0 0 0 0 0 0 0 0 0 0 0 0 0 0 0 0 0 0 0 0 0 0 0 0 0 0 0 0 0 0 0 0 0 0 0 0 0 0 0 0 0 0 0 0 0 0 0 0 0 0 0 0 0 0 0 0 0 0 0 0 0 0 0 0 0 0 0 0 0 0 0 0 0 0 0 0 0 0 0 0 0 0 0 0 0 0 0 0 0 0 0 0 0 0 0 0 0 0 0 0 0 0 0 0 0 0 0 0 0 0 0 0 0 0 0 0 0 0 0 0 0 0 0 0 0 0 0 0 0 0 0 0 0 0 0 0 0 0 0 0 0 0 0 0 0 0 0 0 0 0 0 0 0 0 0 0 0 0 0 0 0 0 0 0 0 0 0 0 0 0 0 0 0 0 0 0 0 0 0 0 0 0 0 0 0 0 0 0 0 0 0 0 0 0 0 0 0 0 0 0 0 0 0 0 0 0 0 0 0 0 0 0 0 0 0 0 0 0 0 0 0 0 0 0 0 0 0 0 0 0 0 0 0 0 0 0 0 0 0 0 0 0 0 0 0 0 0 0 0 0 0 0 0 0 0 0 0 0 0 0 0 0 0 0 0 0 0 0 0 0 0 0 0 0 0 0 0 0 0 0 0 0 0 0 0 0 0 0 0 0 0 0 0 0 0 0 0 0 0 0 -0.00411466 -5.42101e-19 
0.02 0.02 0.02 0.02 0.02 0.02 0.02 0.02 0.02 0.02 0.02 0.02 0.02 0.02 0.02 0.02 0.02 0.0199999 0.0199999 0.0199999 0.0199999 0.0199998 0.0199998 0.0199997 0.0199996 0.0199995 0.0199994 0.0199992 0.019999 0.0199988 0.0199985 0.0199982 0.0199979 0.0199974 0.0199969 0.0199963 0.0199956 0.0199949 0.019994 0.019993 0.0199918 0.0199905 0.0199891 0.0199874 0.0199856 0.0199836 0.0199813 0.0199788 0.0199761 0.019973 0.0199697 0.0199661 0.0199621 0.0199577 0.0199529 0.0199477 0.019942 0.0199358 0.0199292 0.0199219 0.0199141 0.0199056 0.0198965 0.0198867 0.0198762 0.0198649 0.0198528 0.01984 0.0198263 0.0198117 0.0197963 0.01978 0.0197628 0.0197447 0.0197257 0.0197057 0.0196848 0.019663 0.0196402 0.0196165 0.0195918 0.0195662 0.0195396 0.019512 0.0194835 0.019454 0.0194234 0.0193918 0.0193591 0.0193252 0.0192899 0.0192527 0.0192129 0.01917 0.0191242 0.0190761 0.0190262 0.0189749 0.0189223 0.0188686 0.0188141 0.0187593 0.0187048 0.0186517 0.0186013 0.0185552 0.0185147 0.0184812 0.0184552 0.0184361 0.0184219 0.0184094 0.0183939 0.0183708 0.0183361 0.0182873 0.0182227 0.0181478 0.0180745 0.0180051 0.0179385 0.0178923 0.0177821 0.0175924 0.0173124 0.0169799 0.0166155 0.0162841 0.0159906 0.0156953 0.0155212 0.0150512 0.0143658 0.0136756 0.0114248 0.00809545 0.00474616 0.00167104 -0.000985905 -0.00358241 -0.00655946 -0.0100128 0 0 0 0 0 0 0 0 0 0 0 0 0 0 0 0 0 0 0 0 0 0 0 0 0 0 0 0 0 0 0 0 0 0 0 0 0 0 0 0 0 0 0 0 0 0 0 0 0 0 0 0 0 0 0 0 0 0 0 0 0 0 0 0 0 0 0 0 0 0 0 0 0 0 0 0 0 0 0 0 0 0 0 0 0 0 0 0 0 0 0 0 0 0 0 0 0 0 0 0 0 0 0 0 0 0 0 0 0 0 0 0 0 0 0 0 0 0 0 0 0 0 0 0 0 0 0 0 0 0 0 0 0 0 0 0 0 0 0 0 0 0 0 0 0 0 0 0 0 0 0 0 0 0 0 0 0 0 0 0 0 0 0 0 0 0 0 0 0 0 0 0 0 0 0 0 0 0 0 0 0 0 0 0 0 0 0 0 0 0 0 0 0 0 0 0 0 0 0 0 0 0 0 0 0 0 0 0 0 0 0 0 0 0 0 0 0 0 0 0 0 0 0 0 0 0 0 0 0 0 0 0 0 0 0 0 0 0 0 0 0 0 0 0 0 0 0 0 0 0 0 0 0 0 0 0 0 0 0 0 0 0 0 0 0 0 0 0 0 0 0 0 0 0 0 0 0 0 0 0 0 0 0 0 0 0 0 0 0 0 0 0 0 0 0 0 0 0 0 0 0 0 0 0 0 0 0 0 0 0 0 0 0 0 0 0 0 0 0 0 0 0 0 0 0 0 0 0 0 0 0 0 0 0 0 0 0 0 0 0 0 0 0 0 0 0 0 0 0 0 0 0 0 0 0 0 0 0 0 0 0 0 0 0 0 0 0 0 0 0 0 0 0 0 0 0 0 0 0 0 0 0 0 0 0 0 0 0 0 0 0 0 0 0 0 0 0 0 0 0 0 0 0 0 0 0 0 0 0 0 0 0 0 0 0 0 0 0 0 0 0 0 0 0 0 0 0 0 0 0 0 0 0 0 0 0 0 0 0 0 0 0 0 0 0 0 0 0 0 0 0 0 0 0 0 0 0 0 0 0 0 0 0 0 0 0 0 0 0 0 0 0 0 0 0 0 -0.0132462 -0.00690056 -8.67362e-19 
0.02 0.02 0.02 0.02 0.02 0.02 0.02 0.02 0.02 0.02 0.02 0.02 0.02 0.02 0.02 0.02 0.02 0.0199999 0.0199999 0.0199999 0.0199998 0.0199998 0.0199997 0.0199997 0.0199996 0.0199995 0.0199994 0.0199992 0.019999 0.0199988 0.0199985 0.0199982 0.0199978 0.0199974 0.0199969 0.0199963 0.0199956 0.0199949 0.019994 0.019993 0.0199918 0.0199906 0.0199891 0.0199875 0.0199857 0.0199837 0.0199815 0.019979 0.0199763 0.0199734 0.0199701 0.0199665 0.0199626 0.0199583 0.0199536 0.0199485 0.0199429 0.0199369 0.0199303 0.0199232 0.0199155 0.0199072 0.0198983 0.0198887 0.0198784 0.0198673 0.0198555 0.0198429 0.0198294 0.0198151 0.0198 0.0197839 0.019767 0.0197491 0.0197303 0.0197106 0.0196899 0.0196682 0.0196456 0.0196219 0.0195973 0.0195716 0.019545 0.0195173 0.0194885 0.0194586 0.0194276 0.0193954 0.019362 0.0193273 0.019291 0.0192528 0.0192121 0.0191685 0.0191217 0.0190721 0.0190201 0.018966 0.0189103 0.0188532 0.018795 0.0187364 0.0186779 0.0186208 0.0185663 0.018516 0.0184714 0.0184336 0.0184033 0.01838 0.0183618 0.0183454 0.0183267 0.0183013 0.0182664 0.0182215 0.0181673 0.0181067 0.0180482 0.0179917 0.0179239 0.0178136 0.0176706 0.0174537 0.0171673 0.0168357 0.0164833 0.0161555 0.0158526 0.0155594 0.0151895 0.014627 0.0137937 0.0125877 0.0105046 0.00735853 0.00390447 0.00114328 -0.00145366 -0.00419621 -0.00666445 -0.00937168 -0.0123551 -0.0167967 0 0 0 0 0 0 0 0 0 0 0 0 0 0 0 0 0 0 0 0 0 0 0 0 0 0 0 0 0 0 0 0 0 0 0 0 0 0 0 0 0 0 0 0 0 0 0 0 0 0 0 0 0 0 0 0 0 0 0 0 0 0 0 0 0 0 0 0 0 0 0 0 0 0 0 0 0 0 0 0 0 0 0 0 0 0 0 0 0 0 0 0 0 0 0 0 0 0 0 0 0 0 0 0 0 0 0 0 0 0 0 0 0 0 0 0 0 0 0 0 0 0 0 0 0 0 0 0 0 0 0 0 0 0 0 0 0 0 0 0 0 0 0 0 0 0 0 0 0 0 0 0 0 0 0 0 0 0 0 0 0 0 0 0 0 0 0 0 0 0 0 0 0 0 0 0 0 0 0 0 0 0 0 0 0 0 0 0 0 0 0 0 0 0 0 0 0 0 0 0 0 0 0 0 0 0 0 0 0 0 0 0 0 0 0 0 0 0 0 0 0 0 0 0 0 0 0 0 0 0 0 0 0 0 0 0 0 0 0 0 0 0 0 0 0 0 0 0 0 0 0 0 0 0 0 0 0 0 0 0 0 0 0 0 0 0 0 0 0 0 0 0 0 0 0 0 0 0 0 0 0 0 0 0 0 0 0 0 0 0 0 0 0 0 0 0 0 0 0 0 0 0 0 0 0 0 0 0 0 0 0 0 0 0 0 0 0 0 0 0 0 0 0 0 0 0 0 0 0 0 0 0 0 0 0 0 0 0 0 0 0 0 0 0 0 0 0 0 0 0 0 0 0 0 0 0 0 0 0 0 0 0 0 0 0 0 0 0 0 0 0 0 0 0 0 0 0 0 0 0 0 0 0 0 0 0 0 0 0 0 0 0 0 0 0 0 0 0 0 0 0 0 0 0 0 0 0 0 0 0 0 0 0 0 0 0 0 0 0 0 0 0 0 0 0 0 0 0 0 0 0 0 0 0 0 0 0 0 0 0 0 0 0 0 0 0 0 0 0 0 0 0 0 0 0 0 0 0 0 0 0 0 0 0 0 0 0 0 0 0 0 0 -0.0287511 -0.0242929 -0.0173212 -0.00942469 -1.95156e-18 
0.02 0.02 0.02 0.02 0.02 0.02 0.02 0.02 0.02 0.02 0.02 0.02 0.02 0.02 0.02 0.02 0.0199999 0.0199999 0.0199999 0.0199999 0.0199998 0.0199998 0.0199997 0.0199997 0.0199996 0.0199995 0.0199993 0.0199992 0.019999 0.0199988 0.0199985 0.0199982 0.0199978 0.0199974 0.0199969 0.0199963 0.0199957 0.0199949 0.019994 0.019993 0.0199919 0.0199907 0.0199893 0.0199877 0.0199859 0.019984 0.0199818 0.0199794 0.0199768 0.0199739 0.0199707 0.0199672 0.0199633 0.0199592 0.0199546 0.0199496 0.0199442 0.0199383 0.019932 0.0199251 0.0199176 0.0199095 0.0199008 0.0198915 0.0198814 0.0198707 0.0198591 0.0198468 0.0198337 0.0198198 0.0198049 0.0197892 0.0197726 0.0197551 0.0197366 0.0197172 0.0196967 0.0196753 0.0196529 0.0196294 0.0196049 0.0195792 0.0195525 0.0195247 0.0194957 0.0194654 0.019434 0.0194012 0.019367 0.0193313 0.0192939 0.0192545 0.0192126 0.0191678 0.0191197 0.0190685 0.0190143 0.0189576 0.0188987 0.018838 0.0187759 0.0187131 0.0186504 0.0185889 0.0185299 0.0184751 0.0184258 0.0183834 0.0183483 0.0183203 0.0182975 0.0182771 0.0182552 0.0182282 0.0181941 0.0181538 0.0181096 0.018063 0.0180132 0.0179578 0.0178804 0.0177638 0.0175847 0.0173423 0.0170473 0.0167175 0.0163679 0.0160141 0.015663 0.0152663 0.0148184 0.014246 0.01334 0.0118242 0.00958412 0.00662338 0.00338737 0.000435591 -0.00229007 -0.00497692 -0.0074448 -0.00991054 -0.0123311 -0.0152495 -0.0192331 -0.0240421 0 0 0 0 0 0 0 0 0 0 0 0 0 0 0 0 0 0 0 0 0 0 0 0 0 0 0 0 0 0 0 0 0 0 0 0 0 0 0 0 0 0 0 0 0 0 0 0 0 0 0 0 0 0 0 0 0 0 0 0 0 0 0 0 0 0 0 0 0 0 0 0 0 0 0 0 0 0 0 0 0 0 0 0 0 0 0 0 0 0 0 0 0 0 0 0 0 0 0 0 0 0 0 0 0 0 0 0 0 0 0 0 0 0 0 0 0 0 0 0 0 0 0 0 0 0 0 0 0 0 0 0 0 0 0 0 0 0 0 0 0 0 0 0 0 0 0 0 0 0 0 0 0 0 0 0 0 0 0 0 0 0 0 0 0 0 0 0 0 0 0 0 0 0 0 0 0 0 0 0 0 0 0 0 0 0 0 0 0 0 0 0 0 0 0 0 0 0 0 0 0 0 0 0 0 0 0 0 0 0 0 0 0 0 0 0 0 0 0 0 0 0 0 0 0 0 0 0 0 0 0 0 0 0 0 0 0 0 0 0 0 0 0 0 0 0 0 0 0 0 0 0 0 0 0 0 0 0 0 0 0 0 0 0 0 0 0 0 0 0 0 0 0 0 0 0 0 0 0 0 0 0 0 0 0 0 0 0 0 0 0 0 0 0 0 0 0 0 0 0 0 0 0 0 0 0 0 0 0 0 0 0 0 0 0 0 0 0 0 0 0 0 0 0 0 0 0 0 0 0 0 0 0 0 0 0 0 0 0 0 0 0 0 0 0 0 0 0 0 0 0 0 0 0 0 0 0 0 0 0 0 0 0 0 0 0 0 0 0 0 0 0 0 0 0 0 0 0 0 0 0 0 0 0 0 0 0 0 0 0 0 0 0 0 0 0 0 0 0 0 0 -0.039995 -0.0447814 -0.0466636 -0.0461417 -0.0462937 -0.0469945 -0.0476044 -0.0478978 -0.0490768 -0.0465033 -0.0458611 -0.045807 -0.0472268 -0.0475637 -0.0425484 -0.0414485 -0.0424622 -0.0428215 -0.0425548 -0.0427933 -0.0429787 -0.0431137 -0.0431911 -0.0432205 -0.0432136 -0.0431805 -0.0431301 -0.0430689 -0.0430017 -0.0429318 -0.0428613 -0.0427915 -0.0427232 -0.0426569 -0.0425932 -0.0425322 -0.0424743 -0.0424199 -0.0423693 -0.0423228 -0.0422807 -0.0422433 -0.0422108 -0.0421836 -0.0421617 -0.0421452 -0.0421344 -0.0421291 -0.0421292 -0.0421346 -0.0421449 -0.0421598 -0.0421786 -0.0422006 -0.0422246 -0.0422495 -0.0422736 -0.0422948 -0.0423104 -0.0423165 -0.0423075 -0.0422744 -0.0422009 -0.0420493 -0.0416817 -0.0408039 -0.0395686 -0.0378846 -0.0352948 -0.0311596 -0.025724 -0.0189762 -0.0107642 0 
0.02 0.02 0.02 0.02 0.02 0.02 0.02 0.02 0.02 0.02 0.02 0.02 0.02 0.02 0.02 0.02 0.0199999 0.0199999 0.0199999 0.0199999 0.0199998 0.0199998 0.0199997 0.0199997 0.0199996 0.0199995 0.0199993 0.0199992 0.019999 0.0199988 0.0199985 0.0199982 0.0199978 0.0199974 0.0199969 0.0199964 0.0199957 0.019995 0.0199941 0.0199931 0.0199921 0.0199908 0.0199895 0.0199879 0.0199862 0.0199843 0.0199822 0.0199799 0.0199773 0.0199745 0.0199714 0.0199681 0.0199644 0.0199603 0.0199559 0.0199511 0.0199459 0.0199403 0.0199341 0.0199275 0.0199203 0.0199125 0.0199041 0.0198951 0.0198854 0.019875 0.0198638 0.0198519 0.0198392 0.0198256 0.0198112 0.019796 0.0197798 0.0197627 0.0197446 0.0197255 0.0197055 0.0196844 0.0196622 0.019639 0.0196146 0.0195891 0.0195624 0.0195344 0.0195052 0.0194746 0.0194426 0.0194092 0.0193742 0.0193375 0.0192989 0.0192582 0.0192149 0.0191686 0.019119 0.019066 0.0190097 0.0189503 0.0188883 0.018824 0.018758 0.0186911 0.018624 0.0185579 0.0184943 0.0184346 0.0183806 0.0183333 0.0182934 0.0182605 0.0182331 0.0182088 0.0181843 0.0181568 0.0181248 0.0180894 0.0180532 0.0180165 0.0179737 0.0179149 0.0178273 0.0176928 0.017502 0.0172538 0.0169552 0.0166189 0.0162569 0.0158715 0.0154559 0.0149823 0.0144134 0.0137272 0.0127556 0.0111975 0.00887623 0.00591196 0.00279356 -0.000264928 -0.00312163 -0.00583482 -0.00838366 -0.0107861 -0.0131992 -0.015384 -0.0186361 -0.0228824 -0.0285538 -0.0336516 0 0 0 0 0 0 0 0 0 0 0 0 0 0 0 0 0 0 0 0 0 0 0 0 0 0 0 0 0 0 0 0 0 0 0 0 0 0 0 0 0 0 0 0 0 0 0 0 0 0 0 0 0 0 0 0 0 0 0 0 0 0 0 0 0 0 0 0 0 0 0 0 0 0 0 0 0 0 0 0 0 0 0 0 0 0 0 0 0 0 0 0 0 0 0 0 0 0 0 0 0 0 0 0 0 0 0 0 0 0 0 0 0 0 0 0 0 0 0 0 0 0 0 0 0 0 0 0 0 0 0 0 0 0 0 0 0 0 0 0 0 0 0 0 0 0 0 0 0 0 0 0 0 0 0 0 0 0 0 0 0 0 0 0 0 0 0 0 0 0 0 0 0 0 0 0 0 0 0 0 0 0 0 0 0 0 0 0 0 0 0 0 0 0 0 0 0 0 0 0 0 0 0 0 0 0 0 0 0 0 0 0 0 0 0 0 0 0 0 0 0 0 0 0 0 0 0 0 0 0 0 0 0 0 0 0 0 0 0 0 0 0 0 0 0 0 0 0 -0.0401671 -0.0454396 -0.0526313 -0.0573028 -0.061247 -0.0636894 -0.0647774 -0.0654255 -0.0658647 -0.0660183 -0.065771 -0.0654319 -0.0651305 -0.0648227 -0.0645062 -0.064181 -0.0638369 -0.063459 -0.0630272 -0.0625188 -0.0619117 -0.0609629 -0.0599183 -0.0587598 -0.0575228 -0.0562282 -0.0548895 -0.0535309 -0.0521838 -0.0508703 -0.0496216 -0.0484635 -0.0474205 -0.0465098 -0.0457437 -0.045126 -0.044651 -0.0443033 -0.0440496 -0.0438409 -0.0436302 -0.0436593 -0.043839 -0.0441159 -0.0444591 -0.0448548 -0.045297 -0.0457382 -0.0460587 -0.0463879 -0.0467981 -0.0472491 -0.0477854 -0.0485639 -0.0493945 -0.0528593 -0.0620634 0 0 0 0 0 0 0 0 0 0 0 0 0 0 0 0 0 0 0 0 0 0 0 0 0 0 0 0 0 0 0 0 0 0 0 0 0 0 0 0 0 0 0 0 0 -0.0474343 -0.0495333 -0.0501718 -0.0501869 -0.0499384 -0.0495975 -0.0492296 -0.0488559 -0.048471 -0.048015 -0.047449 -0.0469899 -0.0467298 -0.0465679 -0.046462 -0.0463902 -0.0463406 -0.0463067 -0.0462847 -0.0462724 -0.0462685 -0.0462719 -0.0462819 -0.0462981 -0.0463201 -0.0463478 -0.0463812 -0.0464204 -0.0464651 -0.0465152 -0.0465702 -0.0466291 -0.0466907 -0.0467535 -0.0468155 -0.0468745 -0.0469284 -0.0469751 -0.0470128 -0.0470404 -0.0470575 -0.0470641 -0.0470611 -0.0470498 -0.0470314 -0.0470073 -0.0469779 -0.0465913 -0.0461274 -0.0452759 -0.0459041 -0.0465502 -0.0462265 -0.0465317 -0.0467972 -0.0473138 -0.0469156 -0.0473937 -0.0463925 -0.0455696 -0.0447134 -0.0444877 -0.0448904 -0.0433513 -0.0425198 -0.0426351 -0.042829 -0.0426115 -0.0428101 -0.0429817 -0.0431131 -0.0431922 -0.0432243 -0.0432207 -0.0431902 -0.0431417 -0.0430817 -0.0430152 -0.0429454 -0.0428746 -0.0428042 -0.0427353 -0.0426683 -0.0426036 -0.0425418 -0.042483 -0.0424276 -0.042376 -0.0423285 -0.0422854 -0.042247 -0.0422137 -0.0421855 -0.0421627 -0.0421455 -0.0421338 -0.0421278 -0.0421272 -0.042132 -0.0421418 -0.0421562 -0.0421746 -0.0421963 -0.0422202 -0.0422453 -0.04227 -0.0422923 -0.0423096 -0.0423181 -0.0423123 -0.0422824 -0.0422082 -0.0420353 -0.0416481 -0.0408975 -0.0397393 -0.0380016 -0.0353453 -0.0314531 -0.0263424 -0.0199031 -0.0115615 -2.38524e-18 
0.02 0.02 0.02 0.02 0.02 0.02 0.02 0.02 0.02 0.02 0.02 0.02 0.02 0.02 0.02 0.02 0.0199999 0.0199999 0.0199999 0.0199999 0.0199998 0.0199998 0.0199997 0.0199996 0.0199996 0.0199995 0.0199993 0.0199992 0.019999 0.0199988 0.0199985 0.0199982 0.0199979 0.0199975 0.019997 0.0199964 0.0199958 0.0199951 0.0199942 0.0199933 0.0199922 0.0199911 0.0199897 0.0199883 0.0199866 0.0199848 0.0199828 0.0199805 0.0199781 0.0199754 0.0199724 0.0199692 0.0199657 0.0199618 0.0199576 0.019953 0.019948 0.0199426 0.0199367 0.0199304 0.0199235 0.0199161 0.0199081 0.0198994 0.0198901 0.0198801 0.0198694 0.019858 0.0198458 0.0198327 0.0198188 0.0198041 0.0197884 0.0197718 0.0197542 0.0197356 0.019716 0.0196953 0.0196735 0.0196506 0.0196265 0.0196011 0.0195745 0.0195465 0.0195171 0.0194862 0.0194538 0.0194197 0.0193839 0.0193462 0.0193064 0.0192643 0.0192195 0.0191716 0.0191203 0.0190655 0.0190069 0.018945 0.01888 0.0188123 0.0187426 0.0186715 0.0186001 0.0185296 0.0184615 0.0183972 0.0183385 0.0182864 0.0182418 0.0182043 0.0181727 0.0181451 0.0181191 0.0180924 0.0180639 0.0180342 0.0180043 0.0179731 0.0179337 0.0178734 0.0177782 0.0176372 0.0174426 0.0171927 0.0168909 0.0165445 0.0161597 0.0157369 0.0152613 0.0146984 0.0139996 0.0131215 0.0119766 0.0103423 0.00805184 0.00519759 0.00209661 -0.00096763 -0.00391609 -0.00668569 -0.00924715 -0.0117121 -0.0141688 -0.0165263 -0.0190833 -0.0229223 -0.0269943 -0.0326946 -0.0426744 0 0 0 0 0 0 0 0 0 0 0 0 0 0 0 0 0 0 0 0 0 0 0 0 0 0 0 0 0 0 0 0 0 0 0 0 0 0 0 0 0 0 0 0 0 0 0 0 0 0 -0.0454243 -0.049027 0 0 0 0 0 0 0 0 0 0 0 0 0 0 0 0 0 0 0 0 0 0 0 0 0 0 0 0 0 0 0 0 -0.0709321 -0.0725435 -0.0743504 -0.0756112 -0.0760387 -0.0756941 -0.0747466 -0.0732895 -0.0715918 -0.0698318 -0.0684991 -0.0722551 0 0 0 0 0 0 0 0 0 0 0 0 0 0 0 0 0 0 0 0 0 0 0 0 0 0 0 0 0 0 0 0 0 0 0 0 0 0 0 0 0 0 0 0 0 0 0 0 0 0 0 0 0 0 0 0 0 0 0 0 0 0 0 0 0 0 0 0 0 0 0 0 0 0 0 0 0 0 0 0 0 0 0 0 0 0 0 0 0 0 0 0 0 0 0 0 0 0 0 0 0 0 0 0 0 0 0 0 0 0 0 0 0 0 0 0 0 0 0 0 0 0 0 0 0 0 0 0 0 0 0 0 0 0 0 0 0 0 0 0 0 0 0 0 0 0 0 0 0 0 0 -0.0328599 -0.0469847 -0.0528658 -0.0569554 -0.0606091 -0.0630738 -0.0643197 -0.064967 -0.065461 -0.0656729 -0.0655872 -0.0653286 -0.0650337 -0.0647161 -0.0643855 -0.0640474 -0.0636919 -0.0633044 -0.0628641 -0.0623489 -0.0617369 -0.0609737 -0.0599712 -0.0588562 -0.0576382 -0.0563471 -0.0550095 -0.0536521 -0.0523022 -0.0509896 -0.0497433 -0.0485862 -0.0475436 -0.0466317 -0.0458608 -0.0452343 -0.0447453 -0.0443756 -0.0441008 -0.0439 -0.0437803 -0.0438062 -0.0439559 -0.0441971 -0.0445048 -0.0448632 -0.0452554 -0.0456453 -0.0459968 -0.0463629 -0.0467727 -0.0472356 -0.0478171 -0.0487485 -0.0490842 -0.0516357 -0.0555686 -0.0569833 -0.0577886 -0.0592113 -0.0607772 -0.0621846 -0.0632251 -0.0638456 -0.0647949 -0.0662858 -0.0680169 -0.0699942 -0.0718894 -0.0749281 -0.0774385 -0.0823912 -0.0772166 0 0 0 0 0 0 -0.0696914 -0.0730371 -0.0732179 -0.0721093 -0.0715728 -0.0707709 -0.0698121 -0.0687793 -0.0677182 -0.0666735 -0.0655766 -0.0643268 -0.0628511 -0.0611554 -0.0598001 -0.0585998 -0.0574769 -0.0563946 -0.0553122 -0.0541702 -0.0528873 -0.0513733 -0.0499365 -0.0495284 -0.0499299 -0.0502544 -0.0502339 -0.0499896 -0.0496519 -0.0492765 -0.048881 -0.0484641 -0.0480152 -0.0475396 -0.0471597 -0.0468932 -0.0467135 -0.0465909 -0.0465053 -0.0464446 -0.0464016 -0.0463721 -0.0463535 -0.0463442 -0.0463429 -0.0463488 -0.0463613 -0.04638 -0.0464046 -0.0464351 -0.0464713 -0.0465129 -0.0465597 -0.046611 -0.0466658 -0.046723 -0.0467809 -0.0468378 -0.0468918 -0.0469411 -0.0469838 -0.0470188 -0.0470451 -0.0470625 -0.047071 -0.0470714 -0.0470644 -0.0470507 -0.0470306 -0.0470041 -0.0467925 -0.0462892 -0.0459779 -0.046289 -0.0464758 -0.046545 -0.046559 -0.0466621 -0.0469482 -0.0464667 -0.0465289 -0.046354 -0.045578 -0.045053 -0.0445485 -0.0438395 -0.0431627 -0.0428496 -0.0427791 -0.0427284 -0.0427173 -0.0428777 -0.043026 -0.0431398 -0.0432098 -0.0432373 -0.043232 -0.0432008 -0.043152 -0.0430917 -0.0430247 -0.0429542 -0.0428825 -0.0428112 -0.0427411 -0.0426729 -0.042607 -0.042544 -0.042484 -0.0424276 -0.0423749 -0.0423264 -0.0422824 -0.0422433 -0.0422092 -0.0421804 -0.0421572 -0.0421395 -0.0421277 -0.0421215 -0.042121 -0.0421258 -0.0421359 -0.0421505 -0.0421693 -0.0421914 -0.0422158 -0.0422413 -0.0422664 -0.042289 -0.0423067 -0.0423154 -0.042309 -0.0422756 -0.0421876 -0.0419856 -0.0415747 -0.0408439 -0.0396861 -0.0379175 -0.0352884 -0.0315991 -0.0267616 -0.0205151 -0.0120728 4.77049e-18 