# vtk DataFile Version 2.0
iteration 1404
ASCII

DATASET STRUCTURED_POINTS
DIMENSIONS 621 64 1
ORIGIN 0 0 0
SPACING 0.00161031 0.00161031 0.00161031

POINT_DATA 39744
SCALARS P float 1
LOOKUP_TABLE default
0 0 0 0 0 0 0 0 0 0 0 0 0 0 0 0 0 0 0 0 0 0 0 0 0 0 0 0 0 0 0 0 0 0 0 0 0 0 0 0 0 0 0 0 0 0 0 0 0 0 0 0 0 0 0 0 0 0 0 0 0 0 0 0 0 0 0 0 0 0 0 0 0 0 0 0 0 0 0 0 0 0 0 0 0 0 0 0 0 0 0 0 0 0 0 0 0 0 0 0 0 0 0 0 0 0 0 0 0 0 0 0 0 0 0 0 0 0 0 0 0 0 0 0 0 0 0 0 0 0 0 0 0 0 0 0 0 0 0 0 0 0 0 0 0 0 0 0 0 0 0 0 0 0 0 0 0 0 0 0 0 0 0 0 0 0 0 0 0 0 0 0 0 0 0 0 0 0 0 0 0 0 0 0 0 0 0 0 0 0 0 0 0 0 0 0 0 0 0 0 0 0 0 0 0 0 0 0 0 0 0 0 0 0 0 0 0 0 0 0 0 0 0 0 0 0 0 0 0 0 0 0 0 0 0 0 0 0 0 0 0 0 0 0 0 0 0 0 0 0 0 0 0 0 0 0 0 0 0 0 0 0 0 0 0 0 0 0 0 0 0 0 0 0 0 0 0 0 0 0 0 0 0 0 0 0 0 0 0 0 0 0 0 0 0 0 0 0 0 0 0 0 0 0 0 0 0 0 0 0 0 0 0 0 0 0 0 0 0 0 0 0 0 0 0 0 0 0 0 0 0 0 0 0 0 0 0 0 0 0 0 0 0 0 0 0 0 0 0 0 0 0 0 0 0 0 0 0 0 0 0 0 0 0 0 0 0 0 0 0 0 0 0 0 0 0 0 0 0 0 0 0 0 0 0 0 0 0 0 0 0 0 0 0 0 0 0 0 0 0 0 0 0 0 0 0 0 0 0 0 0 0 0 0 0 0 0 0 0 0 0 0 0 0 0 0 0 0 0 0 0 0 0 0 0 0 0 0 0 0 0 0 0 0 0 0 0 0 0 0 0 0 0 0 0 0 0 0 0 0 0 0 0 0 0 0 0 0 0 0 0 0 0 0 0 0 0 0 0 0 0 0 0 0 0 0 0 0 0 0 0 0 0 0 0 0 0 0 0 0 0 0 0 0 0 0 0 0 0 0 0 0 0 0 0 0 0 0 0 0 0 0 0 0 0 0 0 0 0 0 0 0 0 0 0 0 0 0 0 0 0 0 0 0 0 0 0 0 0 0 0 0 0 0 0 0 0 0 0 0 0 0 0 0 0 0 0 0 0 0 0 0 0 0 0 0 0 0 0 0 0 0 0 0 0 0 0 0 0 0 0 0 0 0 0 0 0 0 0 0 0 0 0 0 0 0 0 0 0 0 0 0 0 0 0 0 0 0 0 0 0 
0.02 0.02 0.02 0.02 0.02 0.02 0.02 0.02 0.02 0.02 0.02 0.02 0.02 0.02 0.02 0.02 0.02 0.02 0.02 0.02 0.02 0.02 0.02 0.02 0.02 0.02 0.02 0.02 0.02 0.02 0.02 0.02 0.02 0.02 0.02 0.02 0.02 0.02 0.02 0.02 0.02 0.02 0.02 0.02 0.02 0.02 0.02 0.02 0.02 0.02 0.02 0.02 0.02 0.02 0.02 0.02 0.02 0.02 0.02 0.02 0.02 0.02 0.02 0.02 0.02 0.02 0.02 0.02 0.02 0.02 0.02 0.02 0.02 0.02 0.02 0.02 0.02 0.02 0.02 0.02 0.02 0.02 0.02 0.02 0.02 0.02 0.02 0.02 0.02 0.02 0.0200001 0.0200001 0.0200001 0.0200001 0.0200001 0.0200001 0.0200001 0.0200001 0.0200001 0.0200001 0.0200002 0.0200002 0.0200002 0.0200002 0.0200003 0.0200003 0.0200003 0.0200003 0.0200004 0.0200004 0.0200005 0.0200005 0.0200006 0.0200006 0.0200007 0.0200008 0.0200009 0.020001 0.020001 0.0200012 0.0200013 0.0200014 0.0200015 0.0200017 0.0200019 0.0200021 0.0200023 0.0200025 0.0200027 0.020003 0.0200033 0.0200036 0.0200039 0.0200043 0.0200047 0.0200052 0.0200057 0.0200062 0.0200068 0.0200075 0.0200082 0.0200089 0.0200098 0.0200107 0.0200117 0.0200127 0.0200139 0.0200152 0.0200165 0.020018 0.0200196 0.0200214 0.0200232 0.0200252 0.0200274 0.0200297 0.0200322 0.0200349 0.0200378 0.0200408 0.0200441 0.0200476 0.0200513 0.0200552 0.0200593 0.0200637 0.0200684 0.0200732 0.0200784 0.0200838 0.0200894 0.0200953 0.0201014 0.0201078 0.0201144 0.0201213 0.0201284 0.0201357 0.0201432 0.0201509 0.0201588 0.0201669 0.0201751 0.0201835 0.0201919 0.0202005 0.0202092 0.0202179 0.0202267 0.0202356 0.0202444 0.0202533 0.0202621 0.0202708 0.0202795 0.020288 0.0202964 0.0203046 0.0203127 0.0203205 0.0203282 0.0203356 0.0203428 0.0203497 0.0203564 0.0203628 0.0203689 0.0203747 0.0203803 0.0203856 0.0203906 0.0203953 0.0203997 0.0204038 0.0204076 0.0204111 0.0204143 0.0204173 0.0204199 0.0204223 0.0204243 0.0204261 0.0204275 0.0204287 0.0204296 0.0204301 0.0204304 0.0204304 0.02043 0.0204294 0.0204285 0.0204272 0.0204256 0.0204238 0.0204216 0.0204192 0.0204165 0.0204135 0.0204102 0.0204067 0.0204029 0.0203989 0.0203948 0.0203904 0.020386 0.0203814 0.0203768 0.0203721 0.0203674 0.0203628 0.0203583 0.020354 0.0203498 0.020346 0.0203424 0.0203391 0.0203363 0.020334 0.0203322 0.0203309 0.0203302 0.0203302 0.0203309 0.0203323 0.0203344 0.0203373 0.020341 0.0203455 0.0203507 0.0203567 0.0203634 0.0203708 0.0203789 0.0203875 0.0203967 0.0204063 0.0204162 0.0204264 0.0204368 0.0204471 0.0204573 0.0204672 0.0204767 0.0204855 0.0204936 0.0205008 0.0205069 0.0205118 0.0205153 0.0205172 0.0205175 0.0205159 0.0205124 0.0205069 0.0204991 0.0204889 0.020476 0.0204604 0.0204417 0.0204198 0.0203943 0.0203651 0.020332 0.0202946 0.0202526 0.0202058 0.0201538 0.0200961 0.0200324 0.0199621 0.0198847 0.0197997 0.0197064 0.0196042 0.0194924 0.0193703 0.0192369 0.0190915 0.0189329 0.0187603 0.0185723 0.0183677 0.0181447 0.0179019 0.0176392 0.0173573 0.0170485 0.0167215 0.0164276 0.0163376 0.0163848 0.0185716 0 0 0 0 0 0 0 0 0 0 0 0 0 0 0 0 0 0 0 0 0 0 0 0 0 0 0 0 0 0 0 0 0 0 0 0 0 0 0 0 0 0 0 0 0 0 0 0 0 0 0 0 0 0 0 0 0 0 0 0 0 0 0 0 0 0 0 0 0 0 0 0 0 0 0 0 0 0 0 0 0 0 0 0 0 0 0 0 0 0 0 0 0 0 0 0 0 0 0 0 0 0 0 0 0 0 0 0 0 0 0 0 0 0 0 0 0 0 0 0 0 0 0 0 0 0 0 0 0 0 0 0 0 0 0 0 0 0 0 0 0 0 0 0 0 0 0 0 0 0 0 0 0 0 0 0 0 0 0 0 0 0 0 0 0 0 0 0 0 0 0 0 0 0 0 0 0 0 0 0 0 0 0 0 0 0 0 0 0 0 0 0 0 0 0 0 0 0 0 0 0 0 0 0 0 0 0 0 0 0 0 0 0 0 0 0 0 0 0 0 0 0 0 0 0 0 0 0 0 0 0 0 0 0 0 0 0 0 0 0 0 0 0 0 0 0 0 0 0 0 0 0 0 0 0 0 0 0 0 0 0 0 0 0 0 0 0 0 0 0 0 0 0 0 0 0 0 0 0 0 0 0 0 0 0 0 0 0 0 
0.02 0.02 0.02 0.02 0.02 0.02 0.02 0.02 0.02 0.02 0.02 0.02 0.02 0.02 0.02 0.02 0.02 0.02 0.02 0.02 0.02 0.02 0.02 0.02 0.02 0.02 0.02 0.02 0.02 0.02 0.02 0.02 0.02 0.02 0.02 0.02 0.02 0.02 0.02 0.02 0.02 0.02 0.02 0.02 0.02 0.02 0.02 0.02 0.02 0.02 0.02 0.02 0.02 0.02 0.02 0.02 0.02 0.02 0.02 0.02 0.02 0.02 0.02 0.02 0.02 0.02 0.02 0.02 0.02 0.02 0.02 0.02 0.02 0.02 0.02 0.02 0.02 0.02 0.02 0.02 0.02 0.02 0.02 0.02 0.02 0.02 0.02 0.02 0.02 0.02 0.0200001 0.0200001 0.0200001 0.0200001 0.0200001 0.0200001 0.0200001 0.0200001 0.0200001 0.0200001 0.0200002 0.0200002 0.0200002 0.0200002 0.0200002 0.0200003 0.0200003 0.0200003 0.0200004 0.0200004 0.0200005 0.0200005 0.0200006 0.0200006 0.0200007 0.0200008 0.0200008 0.0200009 0.020001 0.0200011 0.0200012 0.0200014 0.0200015 0.0200017 0.0200018 0.020002 0.0200022 0.0200024 0.0200027 0.0200029 0.0200032 0.0200035 0.0200039 0.0200042 0.0200047 0.0200051 0.0200056 0.0200061 0.0200067 0.0200074 0.020008 0.0200088 0.0200096 0.0200105 0.0200115 0.0200126 0.0200137 0.020015 0.0200163 0.0200178 0.0200194 0.0200211 0.020023 0.0200249 0.0200271 0.0200294 0.0200319 0.0200345 0.0200374 0.0200404 0.0200437 0.0200471 0.0200508 0.0200547 0.0200588 0.0200632 0.0200678 0.0200727 0.0200778 0.0200832 0.0200888 0.0200946 0.0201008 0.0201071 0.0201137 0.0201206 0.0201276 0.0201349 0.0201424 0.0201501 0.020158 0.0201661 0.0201743 0.0201826 0.0201911 0.0201997 0.0202083 0.020217 0.0202258 0.0202347 0.0202435 0.0202524 0.0202612 0.0202699 0.0202786 0.0202871 0.0202955 0.0203038 0.0203118 0.0203197 0.0203273 0.0203348 0.020342 0.0203489 0.0203556 0.020362 0.0203681 0.020374 0.0203796 0.0203848 0.0203898 0.0203945 0.020399 0.0204031 0.0204069 0.0204104 0.0204137 0.0204166 0.0204192 0.0204216 0.0204236 0.0204254 0.0204268 0.020428 0.0204288 0.0204294 0.0204296 0.0204296 0.0204292 0.0204285 0.0204276 0.0204263 0.0204247 0.0204228 0.0204206 0.0204181 0.0204154 0.0204123 0.020409 0.0204054 0.0204016 0.0203976 0.0203934 0.020389 0.0203845 0.0203799 0.0203752 0.0203704 0.0203657 0.020361 0.0203565 0.020352 0.0203478 0.0203438 0.0203402 0.0203368 0.0203339 0.0203315 0.0203295 0.0203281 0.0203273 0.0203272 0.0203277 0.0203289 0.0203309 0.0203336 0.0203371 0.0203414 0.0203464 0.0203522 0.0203587 0.0203659 0.0203738 0.0203822 0.0203912 0.0204006 0.0204104 0.0204204 0.0204306 0.0204408 0.0204508 0.0204606 0.02047 0.0204788 0.0204868 0.020494 0.0205 0.0205049 0.0205084 0.0205103 0.0205106 0.0205092 0.0205058 0.0205003 0.0204926 0.0204825 0.0204697 0.0204542 0.0204357 0.0204139 0.0203886 0.0203595 0.0203265 0.0202892 0.0202474 0.0202008 0.0201489 0.0200914 0.0200278 0.0199577 0.0198805 0.0197957 0.0197027 0.0196007 0.0194892 0.0193673 0.0192342 0.019089 0.0189307 0.0187583 0.0185705 0.018366 0.0181433 0.0179008 0.017639 0.0173612 0.0170584 0.0167582 0.0165137 0.0164819 0.0158271 0.0163501 0.0158967 0.0152485 0.0146846 0.0141105 0.0135038 0.0128499 0.0121002 0.0112096 0.0102014 0.00922774 0.008426 0.0087022 0.0069509 0 0 0 0 0 0 0 0 0 0 0 0 0 0 0 0 0 0 0 0 0 0 0 0 0 0 0 0 0 0 0 0 0 0 0 0 0 0 0 0 0 0 0 0 0 0 0 0 0 0 0 0 0 0 0 0 0 0 0 0 0 0 0 0 0 0 0 0 0 0 0 0 0 0 0 0 0 0 0 0 0 0 0 0 0 0 0 0 0 0 0 0 0 0 0 0 0 0 0 0 0 0 0 0 0 0 0 0 0 0 0 0 0 0 0 0 0 0 0 0 0 0 0 0 0 0 0 0 0 0 0 0 0 0 0 0 0 0 0 0 0 0 0 0 0 0 0 0 0 0 0 0 0 0 0 0 0 0 0 0 0 0 0 0 0 0 0 0 0 0 0 0 0 0 0 0 0 0 0 0 0 0 0 0 0 0 0 0 0 0 0 0 0 0 0 0 0 0 0 0 0 0 0 0 0 0 0 0 0 0 0 0 0 0 0 0 0 0 0 0 0 0 0 0 0 0 0 0 0 0 0 0 0 0 0 0 0 0 0 0 0 0 0 0 0 0 0 0 0 0 0 0 0 0 0 0 0 0 0 0 0 0 0 0 0 0 0 0 0 0 0 0 0 0 0 0 
0.02 0.02 0.02 0.02 0.02 0.02 0.02 0.02 0.02 0.02 0.02 0.02 0.02 0.02 0.02 0.02 0.02 0.02 0.02 0.02 0.02 0.02 0.02 0.02 0.02 0.02 0.02 0.02 0.02 0.02 0.02 0.02 0.02 0.02 0.02 0.02 0.02 0.02 0.02 0.02 0.02 0.02 0.02 0.02 0.02 0.02 0.02 0.02 0.02 0.02 0.02 0.02 0.02 0.02 0.02 0.02 0.02 0.02 0.02 0.02 0.02 0.02 0.02 0.02 0.02 0.02 0.02 0.02 0.02 0.02 0.02 0.02 0.02 0.02 0.02 0.02 0.02 0.02 0.02 0.02 0.02 0.02 0.02 0.02 0.02 0.02 0.02 0.02 0.02 0.02 0.02 0.0200001 0.0200001 0.0200001 0.0200001 0.0200001 0.0200001 0.0200001 0.0200001 0.0200001 0.0200002 0.0200002 0.0200002 0.0200002 0.0200002 0.0200003 0.0200003 0.0200003 0.0200004 0.0200004 0.0200004 0.0200005 0.0200005 0.0200006 0.0200007 0.0200007 0.0200008 0.0200009 0.020001 0.0200011 0.0200012 0.0200013 0.0200015 0.0200016 0.0200018 0.0200019 0.0200021 0.0200024 0.0200026 0.0200028 0.0200031 0.0200034 0.0200038 0.0200041 0.0200045 0.020005 0.0200055 0.020006 0.0200066 0.0200072 0.0200079 0.0200086 0.0200094 0.0200103 0.0200113 0.0200123 0.0200135 0.0200147 0.020016 0.0200175 0.0200191 0.0200208 0.0200226 0.0200246 0.0200267 0.020029 0.0200315 0.0200341 0.0200369 0.0200399 0.0200431 0.0200466 0.0200502 0.0200541 0.0200582 0.0200626 0.0200671 0.020072 0.0200771 0.0200824 0.020088 0.0200938 0.0200999 0.0201063 0.0201129 0.0201197 0.0201267 0.020134 0.0201415 0.0201492 0.0201571 0.0201651 0.0201733 0.0201816 0.0201901 0.0201986 0.0202072 0.020216 0.0202247 0.0202335 0.0202424 0.0202512 0.02026 0.0202687 0.0202773 0.0202859 0.0202943 0.0203025 0.0203105 0.0203184 0.020326 0.0203334 0.0203406 0.0203475 0.0203542 0.0203606 0.0203667 0.0203725 0.0203781 0.0203834 0.0203884 0.020393 0.0203974 0.0204015 0.0204053 0.0204088 0.020412 0.0204149 0.0204176 0.0204199 0.0204219 0.0204236 0.020425 0.0204261 0.0204269 0.0204274 0.0204276 0.0204275 0.0204271 0.0204264 0.0204254 0.020424 0.0204223 0.0204204 0.0204181 0.0204155 0.0204127 0.0204095 0.0204061 0.0204024 0.0203985 0.0203944 0.0203901 0.0203855 0.0203809 0.0203761 0.0203713 0.0203664 0.0203615 0.0203567 0.0203519 0.0203473 0.0203429 0.0203387 0.0203348 0.0203313 0.0203281 0.0203254 0.0203232 0.0203215 0.0203205 0.02032 0.0203202 0.0203212 0.0203228 0.0203252 0.0203284 0.0203324 0.0203371 0.0203425 0.0203487 0.0203556 0.0203631 0.0203713 0.0203799 0.0203891 0.0203986 0.0204083 0.0204183 0.0204282 0.0204381 0.0204477 0.0204569 0.0204656 0.0204735 0.0204806 0.0204866 0.0204914 0.0204949 0.0204969 0.0204973 0.0204959 0.0204926 0.0204873 0.0204797 0.0204698 0.0204572 0.0204419 0.0204236 0.0204019 0.0203769 0.020348 0.0203152 0.0202782 0.0202365 0.02019 0.0201383 0.0200809 0.0200175 0.0199475 0.0198705 0.0197859 0.019693 0.0195913 0.01948 0.0193583 0.0192254 0.0190804 0.0189222 0.0187499 0.0185622 0.0183579 0.0181355 0.0178938 0.0176344 0.0173646 0.0170854 0.0168133 0.0166225 0.0165284 0.0165031 0.016178 0.0156688 0.0152082 0.0146486 0.0140703 0.0134513 0.0127704 0.0120046 0.0111459 0.0102356 0.00929655 0.0084463 0.00779233 0.00674554 0.0053863 0.00400066 0.00246576 0.00092708 -0.000418502 0 0 0 0 0 0 0 0 0 0 0 0 0 0 0 0 0 0 0 0 0 0 0 0 0 0 0 0 0 0 0 0 0 0 0 0 0 0 0 0 0 0 0 0 0 0 0 0 0 0 0 0 0 0 0 0 0 0 0 0 0 0 0 0 0 0 0 0 0 0 0 0 0 0 0 0 0 0 0 0 0 0 0 0 0 0 0 0 0 0 0 0 0 0 0 0 0 0 0 0 0 0 0 0 0 0 0 0 0 0 0 0 0 0 0 0 0 0 0 0 0 0 0 0 0 0 0 0 0 0 0 0 0 0 0 0 0 0 0 0 0 0 0 0 0 0 0 0 0 0 0 0 0 0 0 0 0 0 0 0 0 0 0 0 0 0 0 0 0 0 0 0 0 0 0 0 0 0 0 0 0 0 0 0 0 0 0 0 0 0 0 0 0 0 0 0 0 0 0 0 0 0 0 0 0 0 0 0 0 0 0 0 0 0 0 0 0 0 0 0 0 0 0 0 0 0 0 0 0 0 0 0 0 0 0 0 0 0 0 0 0 0 0 0 0 0 0 0 0 0 0 0 0 0 0 0 0 0 0 0 0 0 0 0 0 0 0 0 0 0 -6.50521e-19 
0.02 0.02 0.02 0.02 0.02 0.02 0.02 0.02 0.02 0.02 0.02 0.02 0.02 0.02 0.02 0.02 0.02 0.02 0.02 0.02 0.02 0.02 0.02 0.02 0.02 0.02 0.02 0.02 0.02 0.02 0.02 0.02 0.02 0.02 0.02 0.02 0.02 0.02 0.02 0.02 0.02 0.02 0.02 0.02 0.02 0.02 0.02 0.02 0.02 0.02 0.02 0.02 0.02 0.02 0.02 0.02 0.02 0.02 0.02 0.02 0.02 0.02 0.02 0.02 0.02 0.02 0.02 0.02 0.02 0.02 0.02 0.02 0.02 0.02 0.02 0.02 0.02 0.02 0.02 0.02 0.02 0.02 0.02 0.02 0.02 0.02 0.02 0.02 0.02 0.02 0.02 0.0200001 0.0200001 0.0200001 0.0200001 0.0200001 0.0200001 0.0200001 0.0200001 0.0200001 0.0200001 0.0200002 0.0200002 0.0200002 0.0200002 0.0200002 0.0200003 0.0200003 0.0200003 0.0200004 0.0200004 0.0200005 0.0200005 0.0200006 0.0200006 0.0200007 0.0200008 0.0200009 0.0200009 0.020001 0.0200012 0.0200013 0.0200014 0.0200015 0.0200017 0.0200019 0.0200021 0.0200023 0.0200025 0.0200027 0.020003 0.0200033 0.0200036 0.020004 0.0200044 0.0200048 0.0200053 0.0200058 0.0200064 0.020007 0.0200076 0.0200084 0.0200092 0.02001 0.020011 0.020012 0.0200131 0.0200144 0.0200157 0.0200171 0.0200187 0.0200203 0.0200221 0.0200241 0.0200262 0.0200285 0.0200309 0.0200335 0.0200363 0.0200393 0.0200425 0.0200459 0.0200495 0.0200533 0.0200574 0.0200617 0.0200662 0.020071 0.0200761 0.0200814 0.0200869 0.0200928 0.0200988 0.0201051 0.0201117 0.0201185 0.0201255 0.0201327 0.0201402 0.0201478 0.0201557 0.0201637 0.0201718 0.0201801 0.0201886 0.0201971 0.0202057 0.0202143 0.0202231 0.0202318 0.0202406 0.0202494 0.0202581 0.0202668 0.0202754 0.0202838 0.0202922 0.0203004 0.0203084 0.0203162 0.0203238 0.0203311 0.0203383 0.0203451 0.0203518 0.0203581 0.0203642 0.02037 0.0203755 0.0203807 0.0203857 0.0203903 0.0203946 0.0203987 0.0204024 0.0204059 0.020409 0.0204119 0.0204144 0.0204167 0.0204186 0.0204203 0.0204216 0.0204227 0.0204234 0.0204238 0.020424 0.0204238 0.0204233 0.0204225 0.0204214 0.0204199 0.0204182 0.0204161 0.0204137 0.020411 0.020408 0.0204048 0.0204012 0.0203974 0.0203933 0.020389 0.0203845 0.0203798 0.020375 0.02037 0.0203649 0.0203598 0.0203547 0.0203496 0.0203446 0.0203398 0.0203351 0.0203306 0.0203264 0.0203225 0.020319 0.020316 0.0203134 0.0203113 0.0203099 0.020309 0.0203088 0.0203093 0.0203106 0.0203125 0.0203152 0.0203187 0.0203229 0.0203279 0.0203337 0.0203401 0.0203472 0.0203549 0.0203631 0.0203718 0.0203809 0.0203903 0.0203999 0.0204096 0.0204191 0.0204285 0.0204375 0.020446 0.0204537 0.0204607 0.0204666 0.0204714 0.0204749 0.0204769 0.0204774 0.0204761 0.0204729 0.0204677 0.0204603 0.0204506 0.0204383 0.0204232 0.0204052 0.0203838 0.020359 0.0203305 0.020298 0.0202612 0.0202198 0.0201736 0.0201221 0.020065 0.0200018 0.019932 0.0198553 0.0197709 0.0196783 0.0195768 0.0194658 0.0193444 0.0192118 0.0190671 0.0189092 0.0187371 0.0185497 0.0183458 0.0181245 0.0178855 0.0176323 0.0173759 0.0171274 0.0168844 0.0166991 0.0165555 0.0164006 0.0160771 0.0156355 0.0151599 0.0146199 0.0140376 0.0134132 0.0127159 0.0119494 0.0111211 0.0102637 0.00937494 0.00851285 0.00763084 0.00658361 0.00530554 0.00395056 0.00247826 0.000959363 -0.000575427 -0.00243215 -0.00442241 -0.00651888 -0.00919662 -0.0110908 0 0 0 0 0 0 0 0 0 0 0 0 0 0 0 0 0 0 0 0 0 0 0 0 0 0 0 0 0 0 0 0 0 0 0 0 0 0 0 0 0 0 0 0 0 0 0 0 0 0 0 0 0 0 0 0 0 0 0 0 0 0 0 0 0 0 0 0 0 0 0 0 0 0 0 0 0 0 0 0 0 0 0 0 0 0 0 0 0 0 0 0 0 0 0 0 0 0 0 0 0 0 0 0 0 0 0 0 0 0 0 0 0 0 0 0 0 0 0 0 0 0 0 0 0 0 0 0 0 0 0 0 0 0 0 0 0 0 0 0 0 0 0 0 0 0 0 0 0 0 0 0 0 0 0 0 0 0 0 0 0 0 0 0 0 0 0 0 0 0 0 0 0 0 0 0 0 0 0 0 0 0 0 0 0 0 0 0 0 0 0 0 0 0 0 0 0 0 0 0 0 0 0 0 0 0 0 0 0 0 0 0 0 0 0 0 0 0 0 0 0 0 0 0 0 0 0 0 0 0 0 0 0 0 0 0 0 0 0 0 0 0 0 0 0 0 0 0 0 0 0 0 0 0 0 0 0 0 0 0 0 0 0 0 0 -1.0842e-19 
0.02 0.02 0.02 0.02 0.02 0.02 0.02 0.02 0.02 0.02 0.02 0.02 0.02 0.02 0.02 0.02 0.02 0.02 0.02 0.02 0.02 0.02 0.02 0.02 0.02 0.02 0.02 0.02 0.02 0.02 0.02 0.02 0.02 0.02 0.02 0.02 0.02 0.02 0.02 0.02 0.02 0.02 0.02 0.02 0.02 0.02 0.02 0.02 0.02 0.02 0.02 0.02 0.02 0.02 0.02 0.02 0.02 0.02 0.02 0.02 0.02 0.02 0.02 0.02 0.02 0.02 0.02 0.02 0.02 0.02 0.02 0.02 0.02 0.02 0.02 0.02 0.02 0.02 0.02 0.02 0.02 0.02 0.02 0.02 0.02 0.02 0.02 0.02 0.02 0.02 0.02 0.02 0.0200001 0.0200001 0.0200001 0.0200001 0.0200001 0.0200001 0.0200001 0.0200001 0.0200001 0.0200002 0.0200002 0.0200002 0.0200002 0.0200002 0.0200003 0.0200003 0.0200003 0.0200004 0.0200004 0.0200004 0.0200005 0.0200005 0.0200006 0.0200007 0.0200007 0.0200008 0.0200009 0.020001 0.0200011 0.0200012 0.0200013 0.0200015 0.0200016 0.0200018 0.020002 0.0200022 0.0200024 0.0200026 0.0200029 0.0200032 0.0200035 0.0200038 0.0200042 0.0200046 0.0200051 0.0200056 0.0200061 0.0200067 0.0200074 0.0200081 0.0200089 0.0200097 0.0200106 0.0200116 0.0200127 0.0200139 0.0200152 0.0200166 0.0200181 0.0200198 0.0200216 0.0200235 0.0200255 0.0200278 0.0200302 0.0200327 0.0200355 0.0200384 0.0200416 0.0200449 0.0200485 0.0200523 0.0200563 0.0200606 0.0200651 0.0200698 0.0200748 0.0200801 0.0200856 0.0200913 0.0200973 0.0201036 0.0201101 0.0201168 0.0201238 0.020131 0.0201384 0.020146 0.0201538 0.0201618 0.0201699 0.0201781 0.0201865 0.020195 0.0202035 0.0202121 0.0202207 0.0202294 0.0202381 0.0202468 0.0202555 0.0202641 0.0202726 0.020281 0.0202892 0.0202973 0.0203052 0.020313 0.0203205 0.0203278 0.0203348 0.0203416 0.0203482 0.0203544 0.0203604 0.0203662 0.0203716 0.0203767 0.0203816 0.0203861 0.0203904 0.0203944 0.020398 0.0204014 0.0204044 0.0204072 0.0204097 0.0204118 0.0204137 0.0204152 0.0204165 0.0204175 0.0204181 0.0204184 0.0204185 0.0204182 0.0204176 0.0204167 0.0204154 0.0204139 0.020412 0.0204098 0.0204073 0.0204044 0.0204013 0.0203979 0.0203941 0.0203901 0.0203859 0.0203814 0.0203767 0.0203717 0.0203667 0.0203614 0.0203561 0.0203507 0.0203453 0.0203399 0.0203346 0.0203294 0.0203243 0.0203195 0.0203149 0.0203106 0.0203067 0.0203032 0.0203002 0.0202976 0.0202957 0.0202943 0.0202935 0.0202935 0.0202941 0.0202955 0.0202976 0.0203005 0.0203042 0.0203086 0.0203137 0.0203195 0.020326 0.0203332 0.0203409 0.0203491 0.0203577 0.0203666 0.0203757 0.020385 0.0203942 0.0204032 0.0204119 0.0204201 0.0204277 0.0204345 0.0204403 0.020445 0.0204485 0.0204505 0.020451 0.0204498 0.0204468 0.0204418 0.0204347 0.0204252 0.0204132 0.0203984 0.0203806 0.0203597 0.0203352 0.020307 0.0202749 0.0202384 0.0201974 0.0201515 0.0201003 0.0200436 0.0199807 0.0199113 0.0198349 0.0197509 0.0196587 0.0195577 0.0194471 0.0193261 0.019194 0.0190497 0.0188922 0.0187206 0.0185339 0.0183312 0.0181125 0.0178791 0.0176358 0.0173951 0.0171723 0.0169674 0.0167664 0.0165848 0.016335 0.0160075 0.0155915 0.0151127 0.0145865 0.0140044 0.0133751 0.0126754 0.0119189 0.0111195 0.0103014 0.00944928 0.00852595 0.00758731 0.00648545 0.00524838 0.00391412 0.00249563 0.00095973 -0.000634986 -0.00242907 -0.00435708 -0.00640329 -0.00873297 -0.0112202 -0.0139628 -0.0168592 -0.0208644 0 0 0 0 0 0 0 0 0 0 0 0 0 0 0 0 0 0 0 0 0 0 0 0 0 0 0 0 0 0 0 0 0 0 0 0 0 0 0 0 0 0 0 0 0 0 0 0 0 0 0 0 0 0 0 0 0 0 0 0 0 0 0 0 0 0 0 0 0 0 0 0 0 0 0 0 0 0 0 0 0 0 0 0 0 0 0 0 0 0 0 0 0 0 0 0 0 0 0 0 0 0 0 0 0 0 0 0 0 0 0 0 0 0 0 0 0 0 0 0 0 0 0 0 0 0 0 0 0 0 0 0 0 0 0 0 0 0 0 0 0 0 0 0 0 0 0 0 0 0 0 0 0 0 0 0 0 0 0 0 0 0 0 0 0 0 0 0 0 0 0 0 0 0 0 0 0 0 0 0 0 0 0 0 0 0 0 0 0 0 0 0 0 0 0 0 0 0 0 0 0 0 0 0 0 0 0 0 0 0 0 0 0 0 0 0 0 0 0 0 0 0 0 0 0 0 0 0 0 0 0 0 0 0 0 0 0 0 0 0 0 0 0 0 0 0 0 0 0 0 0 0 0 0 0 0 0 0 0 0 0 -0.00470435 4.33681e-19 
0.02 0.02 0.02 0.02 0.02 0.02 0.02 0.02 0.02 0.02 0.02 0.02 0.02 0.02 0.02 0.02 0.02 0.02 0.02 0.02 0.02 0.02 0.02 0.02 0.02 0.02 0.02 0.02 0.02 0.02 0.02 0.02 0.02 0.02 0.02 0.02 0.02 0.02 0.02 0.02 0.02 0.02 0.02 0.02 0.02 0.02 0.02 0.02 0.02 0.02 0.02 0.02 0.02 0.02 0.02 0.02 0.02 0.02 0.02 0.02 0.02 0.02 0.02 0.02 0.02 0.02 0.02 0.02 0.02 0.02 0.02 0.02 0.02 0.02 0.02 0.02 0.02 0.02 0.02 0.02 0.02 0.02 0.02 0.02 0.02 0.02 0.02 0.02 0.02 0.02 0.02 0.02 0.02 0.0200001 0.0200001 0.0200001 0.0200001 0.0200001 0.0200001 0.0200001 0.0200001 0.0200001 0.0200002 0.0200002 0.0200002 0.0200002 0.0200002 0.0200003 0.0200003 0.0200003 0.0200004 0.0200004 0.0200004 0.0200005 0.0200005 0.0200006 0.0200007 0.0200007 0.0200008 0.0200009 0.020001 0.0200011 0.0200012 0.0200014 0.0200015 0.0200017 0.0200018 0.020002 0.0200022 0.0200025 0.0200027 0.020003 0.0200033 0.0200036 0.020004 0.0200044 0.0200048 0.0200053 0.0200058 0.0200064 0.020007 0.0200077 0.0200085 0.0200093 0.0200102 0.0200112 0.0200123 0.0200134 0.0200147 0.0200161 0.0200175 0.0200191 0.0200209 0.0200228 0.0200248 0.020027 0.0200293 0.0200318 0.0200345 0.0200374 0.0200405 0.0200438 0.0200473 0.0200511 0.0200551 0.0200593 0.0200637 0.0200684 0.0200733 0.0200785 0.0200839 0.0200896 0.0200955 0.0201017 0.0201082 0.0201148 0.0201217 0.0201288 0.0201362 0.0201437 0.0201514 0.0201593 0.0201674 0.0201755 0.0201838 0.0201922 0.0202007 0.0202092 0.0202178 0.0202263 0.0202349 0.0202435 0.020252 0.0202605 0.0202689 0.0202772 0.0202853 0.0202933 0.0203011 0.0203088 0.0203162 0.0203233 0.0203303 0.020337 0.0203434 0.0203496 0.0203555 0.0203611 0.0203664 0.0203714 0.0203762 0.0203806 0.0203847 0.0203886 0.0203921 0.0203954 0.0203983 0.020401 0.0204033 0.0204053 0.0204071 0.0204085 0.0204097 0.0204105 0.020411 0.0204112 0.0204111 0.0204107 0.02041 0.0204089 0.0204076 0.0204058 0.0204038 0.0204015 0.0203988 0.0203958 0.0203925 0.0203888 0.0203849 0.0203807 0.0203762 0.0203715 0.0203665 0.0203613 0.020356 0.0203505 0.0203448 0.0203391 0.0203334 0.0203276 0.0203219 0.0203163 0.0203108 0.0203055 0.0203004 0.0202956 0.0202912 0.0202871 0.0202835 0.0202804 0.0202778 0.0202758 0.0202744 0.0202737 0.0202736 0.0202743 0.0202757 0.0202779 0.0202808 0.0202845 0.0202889 0.020294 0.0202999 0.0203063 0.0203134 0.020321 0.020329 0.0203374 0.020346 0.0203548 0.0203635 0.0203722 0.0203805 0.0203884 0.0203958 0.0204024 0.020408 0.0204127 0.0204161 0.0204181 0.0204187 0.0204176 0.0204147 0.0204099 0.020403 0.0203938 0.0203821 0.0203676 0.0203503 0.0203297 0.0203056 0.0202779 0.0202461 0.0202101 0.0201695 0.020124 0.0200733 0.0200169 0.0199545 0.0198856 0.0198096 0.0197261 0.0196345 0.019534 0.019424 0.0193036 0.0191721 0.0190284 0.0188716 0.0187008 0.0185154 0.018315 0.0181009 0.0178759 0.0176457 0.0174205 0.0172123 0.0170203 0.0168188 0.0165821 0.0163079 0.0159617 0.0155467 0.0150721 0.01455 0.0139704 0.0133383 0.0126468 0.0119063 0.0111289 0.0103263 0.00949133 0.00858373 0.00756828 0.00644059 0.00521659 0.00389919 0.0024905 0.000970425 -0.000683423 -0.00244545 -0.00435596 -0.00642687 -0.00866553 -0.011044 -0.0136217 -0.0156303 -0.019455 -0.0226722 -0.0260616 -0.0313147 0 0 0 0 0 0 0 0 0 0 0 0 0 0 0 0 0 0 0 0 0 0 0 0 0 0 0 0 0 0 0 0 0 0 0 0 0 0 0 0 0 0 0 0 0 0 0 0 0 0 0 0 0 0 0 0 0 0 0 0 0 0 0 0 0 0 0 0 0 0 0 0 0 0 0 0 0 0 0 0 0 0 0 0 0 0 0 0 0 0 0 0 0 0 0 0 0 0 0 0 0 0 0 0 0 0 0 0 0 0 0 0 0 0 0 0 0 0 0 0 0 0 0 0 0 0 0 0 0 0 0 0 0 0 0 0 0 0 0 0 0 0 0 0 0 0 0 0 0 0 0 0 0 0 0 0 0 0 0 0 0 0 0 0 0 0 0 0 0 0 0 0 0 0 0 0 0 0 0 0 0 0 0 0 0 0 0 0 0 0 0 0 0 0 0 0 0 0 0 0 0 0 0 0 0 0 0 0 0 0 0 0 0 0 0 0 0 0 0 0 0 0 0 0 0 0 0 0 0 0 0 0 0 0 0 0 0 0 0 0 0 0 0 0 0 0 0 0 0 0 0 0 0 0 0 0 0 -0.0168495 -0.00855902 -4.33681e-19 
0.02 0.02 0.02 0.02 0.02 0.02 0.02 0.02 0.02 0.02 0.02 0.02 0.02 0.02 0.02 0.02 0.02 0.02 0.02 0.02 0.02 0.02 0.02 0.02 0.02 0.02 0.02 0.02 0.02 0.02 0.02 0.02 0.02 0.02 0.02 0.02 0.02 0.02 0.02 0.02 0.02 0.02 0.02 0.02 0.02 0.02 0.02 0.02 0.02 0.02 0.02 0.02 0.02 0.02 0.02 0.02 0.02 0.02 0.02 0.02 0.02 0.02 0.02 0.02 0.02 0.02 0.02 0.02 0.02 0.02 0.02 0.02 0.02 0.02 0.02 0.02 0.02 0.02 0.02 0.02 0.02 0.02 0.02 0.02 0.02 0.02 0.02 0.02 0.02 0.02 0.02 0.02 0.02 0.02 0.0200001 0.0200001 0.0200001 0.0200001 0.0200001 0.0200001 0.0200001 0.0200001 0.0200001 0.0200002 0.0200002 0.0200002 0.0200002 0.0200002 0.0200003 0.0200003 0.0200003 0.0200004 0.0200004 0.0200004 0.0200005 0.0200006 0.0200006 0.0200007 0.0200008 0.0200008 0.0200009 0.020001 0.0200011 0.0200013 0.0200014 0.0200015 0.0200017 0.0200019 0.0200021 0.0200023 0.0200025 0.0200028 0.0200031 0.0200034 0.0200037 0.0200041 0.0200046 0.020005 0.0200055 0.0200061 0.0200067 0.0200074 0.0200081 0.0200089 0.0200097 0.0200107 0.0200117 0.0200129 0.0200141 0.0200154 0.0200169 0.0200184 0.0200201 0.0200219 0.0200239 0.0200261 0.0200283 0.0200308 0.0200335 0.0200363 0.0200393 0.0200426 0.020046 0.0200497 0.0200536 0.0200577 0.0200621 0.0200667 0.0200715 0.0200766 0.020082 0.0200876 0.0200934 0.0200995 0.0201058 0.0201124 0.0201192 0.0201262 0.0201335 0.0201409 0.0201485 0.0201563 0.0201643 0.0201724 0.0201806 0.0201889 0.0201972 0.0202056 0.0202141 0.0202225 0.020231 0.0202394 0.0202478 0.0202562 0.0202644 0.0202726 0.0202806 0.0202884 0.0202961 0.0203036 0.0203108 0.0203179 0.0203247 0.0203312 0.0203375 0.0203436 0.0203493 0.0203548 0.0203599 0.0203648 0.0203694 0.0203737 0.0203777 0.0203814 0.0203848 0.0203879 0.0203907 0.0203932 0.0203953 0.0203972 0.0203988 0.0204001 0.0204011 0.0204018 0.0204021 0.0204022 0.020402 0.0204014 0.0204005 0.0203993 0.0203977 0.0203959 0.0203937 0.0203911 0.0203883 0.0203851 0.0203815 0.0203777 0.0203736 0.0203691 0.0203644 0.0203594 0.0203541 0.0203486 0.0203429 0.0203371 0.0203311 0.020325 0.0203188 0.0203127 0.0203065 0.0203004 0.0202944 0.0202886 0.0202829 0.0202776 0.0202725 0.0202678 0.0202635 0.0202597 0.0202564 0.0202536 0.0202514 0.0202499 0.0202491 0.0202489 0.0202495 0.0202509 0.020253 0.0202558 0.0202594 0.0202638 0.0202688 0.0202745 0.0202809 0.0202878 0.0202951 0.0203029 0.0203109 0.0203192 0.0203275 0.0203357 0.0203437 0.0203513 0.0203583 0.0203647 0.0203702 0.0203748 0.0203781 0.0203802 0.0203808 0.0203798 0.0203771 0.0203725 0.0203658 0.0203569 0.0203455 0.0203314 0.0203144 0.0202943 0.0202707 0.0202434 0.0202121 0.0201766 0.0201365 0.0200915 0.0200412 0.0199854 0.0199235 0.0198551 0.0197797 0.0196968 0.0196058 0.019506 0.0193967 0.019277 0.0191463 0.0190034 0.0188476 0.0186782 0.0184949 0.0182985 0.0180909 0.0178762 0.0176598 0.0174476 0.0172449 0.0170481 0.0168419 0.0165953 0.0162905 0.0159255 0.0155066 0.0150353 0.0145134 0.0139363 0.0133064 0.0126264 0.0119026 0.01114 0.0103396 0.00948862 0.00856635 0.00754758 0.00642807 0.00521113 0.00389929 0.00248657 0.000961433 -0.000689331 -0.00246182 -0.00436015 -0.00644217 -0.0086377 -0.0110176 -0.013565 -0.0162601 -0.0191159 -0.0221598 -0.0242148 -0.0289944 -0.032875 -0.0381273 -0.0397666 0 0 0 0 0 0 0 0 0 0 0 0 0 0 0 0 0 0 0 0 0 0 0 0 0 0 0 0 0 0 0 0 0 0 0 0 0 0 0 0 0 0 0 0 0 0 0 0 0 0 0 0 0 0 0 0 0 0 0 0 0 0 0 0 0 0 0 0 0 0 0 0 0 0 0 0 0 0 0 0 0 0 0 0 0 0 0 0 0 0 0 0 0 0 0 0 0 0 0 0 0 0 0 0 0 0 0 0 0 0 0 0 0 0 0 0 0 0 0 0 0 0 0 0 0 0 0 0 0 0 0 0 0 0 0 0 0 0 0 0 0 0 0 0 0 0 0 0 0 0 0 0 0 0 0 0 0 0 0 0 0 0 0 0 0 0 0 0 0 0 0 0 0 0 0 0 0 0 0 0 0 0 0 0 0 0 0 0 0 0 0 0 0 0 0 0 0 0 0 0 0 0 0 0 0 0 0 0 0 0 0 0 0 0 0 0 0 0 0 0 0 0 0 0 0 0 0 0 0 0 0 0 0 0 0 0 0 0 0 0 0 0 0 0 0 0 0 0 0 0 0 0 -0.0346606 -0.0292579 -0.0210907 -0.0115195 -1.30104e-18 