# vtk DataFile Version 2.0
iteration 1053
ASCII

DATASET STRUCTURED_POINTS
DIMENSIONS 621 64 1
ORIGIN 0 0 0
SPACING 0.00161031 0.00161031 0.00161031

POINT_DATA 39744
SCALARS P float 1
LOOKUP_TABLE default
0 0 0 0 0 0 0 0 0 0 0 0 0 0 0 0 0 0 0 0 0 0 0 0 0 0 0 0 0 0 0 0 0 0 0 0 0 0 0 0 0 0 0 0 0 0 0 0 0 0 0 0 0 0 0 0 0 0 0 0 0 0 0 0 0 0 0 0 0 0 0 0 0 0 0 0 0 0 0 0 0 0 0 0 0 0 0 0 0 0 0 0 0 0 0 0 0 0 0 0 0 0 0 0 0 0 0 0 0 0 0 0 0 0 0 0 0 0 0 0 0 0 0 0 0 0 0 0 0 0 0 0 0 0 0 0 0 0 0 0 0 0 0 0 0 0 0 0 0 0 0 0 0 0 0 0 0 0 0 0 0 0 0 0 0 0 0 0 0 0 0 0 0 0 0 0 0 0 0 0 0 0 0 0 0 0 0 0 0 0 0 0 0 0 0 0 0 0 0 0 0 0 0 0 0 0 0 0 0 0 0 0 0 0 0 0 0 0 0 0 0 0 0 0 0 0 0 0 0 0 0 0 0 0 0 0 0 0 0 0 0 0 0 0 0 0 0 0 0 0 0 0 0 0 0 0 0 0 0 0 0 0 0 0 0 0 0 0 0 0 0 0 0 0 0 0 0 0 0 0 0 0 0 0 0 0 0 0 0 0 0 0 0 0 0 0 0 0 0 0 0 0 0 0 0 0 0 0 0 0 0 0 0 0 0 0 0 0 0 0 0 0 0 0 0 0 0 0 0 0 0 0 0 0 0 0 0 0 0 0 0 0 0 0 0 0 0 0 0 0 0 0 0 0 0 0 0 0 0 0 0 0 0 0 0 0 0 0 0 0 0 0 0 0 0 0 0 0 0 0 0 0 0 0 0 0 0 0 0 0 0 0 0 0 0 0 0 0 0 0 0 0 0 0 0 0 0 0 0 0 0 0 0 0 0 0 0 0 0 0 0 0 0 0 0 0 0 0 0 0 0 0 0 0 0 0 0 0 0 0 0 0 0 0 0 0 0 0 0 0 0 0 0 0 0 0 0 0 0 0 0 0 0 0 0 0 0 0 0 0 0 0 0 0 0 0 0 0 0 0 0 0 0 0 0 0 0 0 0 0 0 0 0 0 0 0 0 0 0 0 0 0 0 0 0 0 0 0 0 0 0 0 0 0 0 0 0 0 0 0 0 0 0 0 0 0 0 0 0 0 0 0 0 0 0 0 0 0 0 0 0 0 0 0 0 0 0 0 0 0 0 0 0 0 0 0 0 0 0 0 0 0 0 0 0 0 0 0 0 0 0 0 0 0 0 0 0 0 0 0 0 0 0 0 0 0 0 0 0 0 0 0 0 0 0 0 0 0 0 0 0 0 0 0 0 0 0 0 0 0 0 0 0 0 0 0 0 0 0 0 0 
0.02 0.02 0.02 0.02 0.02 0.02 0.02 0.02 0.02 0.02 0.02 0.02 0.02 0.02 0.02 0.02 0.02 0.02 0.02 0.02 0.02 0.02 0.02 0.02 0.02 0.02 0.02 0.02 0.02 0.02 0.02 0.02 0.02 0.02 0.02 0.02 0.02 0.02 0.02 0.02 0.02 0.02 0.02 0.02 0.02 0.02 0.02 0.0199999 0.0199999 0.0199999 0.0199999 0.0199999 0.0199999 0.0199999 0.0199998 0.0199998 0.0199998 0.0199998 0.0199997 0.0199997 0.0199997 0.0199996 0.0199996 0.0199995 0.0199994 0.0199994 0.0199993 0.0199992 0.0199991 0.019999 0.0199988 0.0199987 0.0199985 0.0199983 0.0199981 0.0199979 0.0199977 0.0199974 0.0199971 0.0199968 0.0199964 0.019996 0.0199956 0.0199951 0.0199946 0.019994 0.0199934 0.0199928 0.019992 0.0199913 0.0199904 0.0199895 0.0199885 0.0199874 0.0199863 0.0199851 0.0199837 0.0199823 0.0199808 0.0199791 0.0199773 0.0199754 0.0199734 0.0199712 0.0199689 0.0199664 0.0199637 0.0199609 0.0199578 0.0199545 0.019951 0.0199472 0.0199432 0.0199388 0.0199342 0.0199292 0.0199239 0.0199182 0.019912 0.0199054 0.0198984 0.0198908 0.0198826 0.0198739 0.0198645 0.0198545 0.0198438 0.0198323 0.01982 0.0198069 0.0197929 0.019778 0.0197622 0.0197455 0.0197278 0.0197092 0.0196896 0.019669 0.0196475 0.0196252 0.019602 0.0195781 0.0195534 0.0195282 0.0195025 0.0194764 0.0194501 0.0194236 0.0193972 0.019371 0.0193449 0.0193175 0.019289 0.0192625 0.0192379 0.0192148 0.0191931 0.0191731 0.0191547 0.019138 0.0191232 0.0191103 0.0190994 0.0190904 0.0190835 0.0190786 0.0190757 0.0190747 0.0190755 0.0190781 0.0190821 0.0190876 0.0190943 0.0191019 0.0191103 0.0191191 0.019128 0.0191368 0.0191451 0.0191526 0.0191589 0.0191635 0.0191663 0.0191668 0.0191646 0.0191595 0.0191511 0.0191391 0.0191233 0.0191035 0.0190795 0.0190512 0.0190185 0.0189813 0.0189398 0.0188938 0.0188436 0.0187892 0.0187307 0.0186682 0.018602 0.0185319 0.0184582 0.018381 0.0183003 0.0182163 0.0181293 0.0180394 0.017947 0.0178519 0.0177545 0.0176541 0.0175502 0.0174417 0.0173279 0.0172085 0.0170822 0.0169465 0.0167996 0.0166402 0.0164671 0.0162795 0.0160758 0.0158543 0.015613 0.0153494 0.0150614 0.0147477 0.0144068 0.0140322 0.0136285 0.0132394 0.0130033 0.0128621 0.0143531 0 0 0 0 0 0 0 0 0 0 0 0 0 0 0 0 0 0 0 0 0 0 0 0 0 0 0 0 0 0 0 0 0 0 0 0 0 0 0 0 0 0 0 0 0 0 0 0 0 0 0 0 0 0 0 0 0 0 0 0 0 0 0 0 0 0 0 0 0 0 0 0 0 0 0 0 0 0 0 0 0 0 0 0 0 0 0 0 0 0 0 0 0 0 0 0 0 0 0 0 0 0 0 0 0 0 0 0 0 0 0 0 0 0 0 0 0 0 0 0 0 0 0 0 0 0 0 0 0 0 0 0 0 0 0 0 0 0 0 0 0 0 0 0 0 0 0 0 0 0 0 0 0 0 0 0 0 0 0 0 0 0 0 0 0 0 0 0 0 0 0 0 0 0 0 0 0 0 0 0 0 0 0 0 0 0 0 0 0 0 0 0 0 0 0 0 0 0 0 0 0 0 0 0 0 0 0 0 0 0 0 0 0 0 0 0 0 0 0 0 0 0 0 0 0 0 0 0 0 0 0 0 0 0 0 0 0 0 0 0 0 0 0 0 0 0 0 0 0 0 0 0 0 0 0 0 0 0 0 0 0 0 0 0 0 0 0 0 0 0 0 0 0 0 0 0 0 0 0 0 0 0 0 0 0 0 0 0 0 0 0 0 0 0 0 0 0 0 0 0 0 0 0 0 0 0 0 0 0 0 0 0 0 0 0 0 0 0 0 0 0 0 0 0 0 0 0 0 0 0 0 0 0 0 0 0 0 0 0 0 0 0 0 0 0 0 0 0 0 0 0 0 0 0 0 0 0 0 0 0 0 0 0 0 0 0 0 0 0 0 0 0 0 0 0 0 0 0 0 0 0 0 0 0 0 0 
0.02 0.02 0.02 0.02 0.02 0.02 0.02 0.02 0.02 0.02 0.02 0.02 0.02 0.02 0.02 0.02 0.02 0.02 0.02 0.02 0.02 0.02 0.02 0.02 0.02 0.02 0.02 0.02 0.02 0.02 0.02 0.02 0.02 0.02 0.02 0.02 0.02 0.02 0.02 0.02 0.02 0.02 0.02 0.02 0.02 0.02 0.02 0.0199999 0.0199999 0.0199999 0.0199999 0.0199999 0.0199999 0.0199999 0.0199999 0.0199998 0.0199998 0.0199998 0.0199997 0.0199997 0.0199997 0.0199996 0.0199996 0.0199995 0.0199995 0.0199994 0.0199993 0.0199992 0.0199991 0.019999 0.0199989 0.0199987 0.0199986 0.0199984 0.0199982 0.019998 0.0199977 0.0199975 0.0199972 0.0199969 0.0199965 0.0199961 0.0199957 0.0199952 0.0199947 0.0199942 0.0199936 0.019993 0.0199922 0.0199915 0.0199907 0.0199898 0.0199888 0.0199878 0.0199866 0.0199854 0.0199841 0.0199827 0.0199812 0.0199796 0.0199779 0.019976 0.019974 0.0199719 0.0199696 0.0199671 0.0199645 0.0199617 0.0199587 0.0199554 0.019952 0.0199483 0.0199443 0.01994 0.0199354 0.0199305 0.0199252 0.0199195 0.0199135 0.0199069 0.0198999 0.0198924 0.0198843 0.0198757 0.0198664 0.0198564 0.0198457 0.0198343 0.0198221 0.019809 0.0197951 0.0197803 0.0197646 0.0197479 0.0197303 0.0197117 0.0196921 0.0196716 0.0196501 0.0196278 0.0196046 0.0195807 0.019556 0.0195307 0.019505 0.0194788 0.0194524 0.0194258 0.0193993 0.0193729 0.0193466 0.0193199 0.0192925 0.0192662 0.0192414 0.019218 0.0191961 0.0191757 0.0191571 0.0191401 0.019125 0.0191118 0.0191005 0.0190912 0.019084 0.0190787 0.0190754 0.0190739 0.0190743 0.0190763 0.01908 0.019085 0.0190912 0.0190983 0.0191062 0.0191146 0.0191231 0.0191314 0.0191393 0.0191464 0.0191523 0.0191567 0.0191591 0.0191594 0.019157 0.0191517 0.0191432 0.0191312 0.0191154 0.0190957 0.0190718 0.0190436 0.0190111 0.0189742 0.0189329 0.0188873 0.0188375 0.0187834 0.0187253 0.0186633 0.0185974 0.0185277 0.0184544 0.0183776 0.0182975 0.0182142 0.018128 0.0180392 0.0179482 0.0178549 0.0177593 0.0176609 0.0175589 0.0174521 0.0173393 0.0172201 0.0170935 0.0169577 0.0168108 0.0166518 0.0164792 0.0162919 0.0160884 0.0158669 0.0156253 0.0153616 0.0150735 0.0147603 0.0144229 0.0140529 0.0136691 0.0133162 0.013115 0.0124343 0.012622 0.0120544 0.0112991 0.0105993 0.00985804 0.00903049 0.00808091 0.00704856 0.00603696 0.00516887 0.0050944 0 0 0 0 0 0 0 0 0 0 0 0 0 0 0 0 0 0 0 0 0 0 0 0 0 0 0 0 0 0 0 0 0 0 0 0 0 0 0 0 0 0 0 0 0 0 0 0 0 0 0 0 0 0 0 0 0 0 0 0 0 0 0 0 0 0 0 0 0 0 0 0 0 0 0 0 0 0 0 0 0 0 0 0 0 0 0 0 0 0 0 0 0 0 0 0 0 0 0 0 0 0 0 0 0 0 0 0 0 0 0 0 0 0 0 0 0 0 0 0 0 0 0 0 0 0 0 0 0 0 0 0 0 0 0 0 0 0 0 0 0 0 0 0 0 0 0 0 0 0 0 0 0 0 0 0 0 0 0 0 0 0 0 0 0 0 0 0 0 0 0 0 0 0 0 0 0 0 0 0 0 0 0 0 0 0 0 0 0 0 0 0 0 0 0 0 0 0 0 0 0 0 0 0 0 0 0 0 0 0 0 0 0 0 0 0 0 0 0 0 0 0 0 0 0 0 0 0 0 0 0 0 0 0 0 0 0 0 0 0 0 0 0 0 0 0 0 0 0 0 0 0 0 0 0 0 0 0 0 0 0 0 0 0 0 0 0 0 0 0 0 0 0 0 0 0 0 0 0 0 0 0 0 0 0 0 0 0 0 0 0 0 0 0 0 0 0 0 0 0 0 0 0 0 0 0 0 0 0 0 0 0 0 0 0 0 0 0 0 0 0 0 0 0 0 0 0 0 0 0 0 0 0 0 0 0 0 0 0 0 0 0 0 0 0 0 0 0 0 0 0 0 0 0 0 0 0 0 0 0 0 0 0 0 0 0 0 0 0 0 0 0 0 0 0 0 
0.02 0.02 0.02 0.02 0.02 0.02 0.02 0.02 0.02 0.02 0.02 0.02 0.02 0.02 0.02 0.02 0.02 0.02 0.02 0.02 0.02 0.02 0.02 0.02 0.02 0.02 0.02 0.02 0.02 0.02 0.02 0.02 0.02 0.02 0.02 0.02 0.02 0.02 0.02 0.02 0.02 0.02 0.02 0.02 0.02 0.02 0.02 0.0199999 0.0199999 0.0199999 0.0199999 0.0199999 0.0199999 0.0199999 0.0199999 0.0199998 0.0199998 0.0199998 0.0199998 0.0199997 0.0199997 0.0199996 0.0199996 0.0199995 0.0199995 0.0199994 0.0199993 0.0199992 0.0199991 0.019999 0.0199989 0.0199988 0.0199986 0.0199984 0.0199982 0.019998 0.0199978 0.0199975 0.0199973 0.019997 0.0199966 0.0199962 0.0199958 0.0199954 0.0199949 0.0199944 0.0199938 0.0199931 0.0199925 0.0199917 0.0199909 0.01999 0.0199891 0.0199881 0.019987 0.0199858 0.0199846 0.0199832 0.0199817 0.0199801 0.0199784 0.0199766 0.0199747 0.0199726 0.0199704 0.019968 0.0199654 0.0199626 0.0199597 0.0199565 0.0199531 0.0199494 0.0199455 0.0199413 0.0199368 0.019932 0.0199268 0.0199212 0.0199152 0.0199088 0.0199019 0.0198944 0.0198865 0.0198779 0.0198687 0.0198588 0.0198483 0.019837 0.0198248 0.0198119 0.0197981 0.0197834 0.0197678 0.0197512 0.0197337 0.0197152 0.0196958 0.0196753 0.019654 0.0196318 0.0196087 0.0195848 0.0195602 0.019535 0.0195093 0.0194831 0.0194567 0.0194302 0.0194036 0.0193772 0.0193509 0.0193245 0.0192979 0.0192719 0.0192469 0.0192233 0.0192012 0.0191805 0.0191616 0.0191443 0.0191288 0.0191153 0.0191036 0.0190939 0.0190861 0.0190803 0.0190764 0.0190744 0.0190742 0.0190756 0.0190785 0.0190828 0.0190883 0.0190947 0.0191018 0.0191093 0.019117 0.0191246 0.0191317 0.019138 0.0191431 0.0191467 0.0191485 0.0191481 0.0191451 0.0191393 0.0191303 0.0191179 0.0191018 0.0190818 0.0190578 0.0190296 0.0189971 0.0189604 0.0189194 0.0188741 0.0188247 0.0187711 0.0187136 0.0186521 0.0185869 0.018518 0.0184457 0.01837 0.0182913 0.0182098 0.0181258 0.0180396 0.0179514 0.0178611 0.0177684 0.0176731 0.0175742 0.0174701 0.0173595 0.0172416 0.0171155 0.01698 0.0168338 0.0166756 0.016504 0.0163177 0.0161149 0.015894 0.0156529 0.0153895 0.015102 0.0147907 0.0144592 0.0141054 0.0137427 0.0134274 0.013177 0.0129665 0.012508 0.0118887 0.011279 0.0105702 0.00981018 0.0089699 0.00804547 0.00708835 0.00607609 0.00512708 0.00433889 0.00313431 0.0017773 0.000378536 -0.00105648 -0.00267436 -0.00421894 0 0 0 0 0 0 0 0 0 0 0 0 0 0 0 0 0 0 0 0 0 0 0 0 0 0 0 0 0 0 0 0 0 0 0 0 0 0 0 0 0 0 0 0 0 0 0 0 0 0 0 0 0 0 0 0 0 0 0 0 0 0 0 0 0 0 0 0 0 0 0 0 0 0 0 0 0 0 0 0 0 0 0 0 0 0 0 0 0 0 0 0 0 0 0 0 0 0 0 0 0 0 0 0 0 0 0 0 0 0 0 0 0 0 0 0 0 0 0 0 0 0 0 0 0 0 0 0 0 0 0 0 0 0 0 0 0 0 0 0 0 0 0 0 0 0 0 0 0 0 0 0 0 0 0 0 0 0 0 0 0 0 0 0 0 0 0 0 0 0 0 0 0 0 0 0 0 0 0 0 0 0 0 0 0 0 0 0 0 0 0 0 0 0 0 0 0 0 0 0 0 0 0 0 0 0 0 0 0 0 0 0 0 0 0 0 0 0 0 0 0 0 0 0 0 0 0 0 0 0 0 0 0 0 0 0 0 0 0 0 0 0 0 0 0 0 0 0 0 0 0 0 0 0 0 0 0 0 0 0 0 0 0 0 0 0 0 0 0 0 0 0 0 0 0 0 0 0 0 0 0 0 0 0 0 0 0 0 0 0 0 0 0 0 0 0 0 0 0 0 0 0 0 0 0 0 0 0 0 0 0 0 0 0 0 0 0 0 0 0 0 0 0 0 0 0 0 0 0 0 0 0 0 0 0 0 0 0 0 0 0 0 0 0 0 0 0 0 0 0 0 0 0 0 0 0 0 0 0 0 0 0 0 0 0 0 0 0 0 -2.1684e-19 
0.02 0.02 0.02 0.02 0.02 0.02 0.02 0.02 0.02 0.02 0.02 0.02 0.02 0.02 0.02 0.02 0.02 0.02 0.02 0.02 0.02 0.02 0.02 0.02 0.02 0.02 0.02 0.02 0.02 0.02 0.02 0.02 0.02 0.02 0.02 0.02 0.02 0.02 0.02 0.02 0.02 0.02 0.02 0.02 0.02 0.02 0.02 0.0199999 0.0199999 0.0199999 0.0199999 0.0199999 0.0199999 0.0199999 0.0199999 0.0199998 0.0199998 0.0199998 0.0199998 0.0199997 0.0199997 0.0199997 0.0199996 0.0199996 0.0199995 0.0199994 0.0199993 0.0199993 0.0199992 0.0199991 0.0199989 0.0199988 0.0199987 0.0199985 0.0199983 0.0199981 0.0199979 0.0199976 0.0199974 0.0199971 0.0199967 0.0199964 0.019996 0.0199956 0.0199951 0.0199946 0.019994 0.0199934 0.0199927 0.019992 0.0199912 0.0199904 0.0199895 0.0199885 0.0199875 0.0199863 0.0199851 0.0199838 0.0199824 0.0199808 0.0199792 0.0199774 0.0199755 0.0199735 0.0199713 0.019969 0.0199665 0.0199638 0.019961 0.0199579 0.0199546 0.019951 0.0199472 0.0199431 0.0199387 0.019934 0.0199289 0.0199234 0.0199176 0.0199113 0.0199045 0.0198972 0.0198894 0.0198809 0.0198719 0.0198622 0.0198518 0.0198406 0.0198287 0.0198159 0.0198023 0.0197877 0.0197723 0.0197559 0.0197386 0.0197202 0.019701 0.0196807 0.0196595 0.0196375 0.0196145 0.0195908 0.0195663 0.0195413 0.0195156 0.0194896 0.0194633 0.0194368 0.0194102 0.0193838 0.0193576 0.0193314 0.0193054 0.0192797 0.0192548 0.0192311 0.0192087 0.0191878 0.0191685 0.0191509 0.019135 0.019121 0.0191088 0.0190985 0.0190902 0.0190837 0.0190791 0.0190763 0.0190753 0.0190758 0.0190778 0.0190811 0.0190856 0.0190909 0.019097 0.0191034 0.01911 0.0191164 0.0191224 0.0191276 0.0191317 0.0191342 0.019135 0.0191337 0.0191298 0.0191232 0.0191136 0.0191006 0.019084 0.0190637 0.0190394 0.0190111 0.0189787 0.0189422 0.0189015 0.0188568 0.0188079 0.0187552 0.0186985 0.0186382 0.0185742 0.0185069 0.0184364 0.018363 0.0182869 0.0182085 0.0181279 0.0180453 0.0179608 0.0178743 0.0177853 0.0176933 0.0175976 0.0174967 0.017389 0.0172732 0.0171486 0.0170144 0.0168696 0.0167128 0.0165428 0.0163579 0.0161564 0.0159366 0.0156964 0.0154343 0.015149 0.0148422 0.0145211 0.0141916 0.0138506 0.0135394 0.013248 0.0129346 0.0124749 0.0119025 0.0112755 0.0105693 0.00979682 0.00895775 0.00805208 0.00713041 0.00618407 0.00516287 0.00419094 0.00301936 0.00172934 0.000374993 -0.00103826 -0.0023771 -0.00415777 -0.00587855 -0.00769775 -0.00957114 -0.0122612 -0.013707 0 0 0 0 0 0 0 0 0 0 0 0 0 0 0 0 0 0 0 0 0 0 0 0 0 0 0 0 0 0 0 0 0 0 0 0 0 0 0 0 0 0 0 0 0 0 0 0 0 0 0 0 0 0 0 0 0 0 0 0 0 0 0 0 0 0 0 0 0 0 0 0 0 0 0 0 0 0 0 0 0 0 0 0 0 0 0 0 0 0 0 0 0 0 0 0 0 0 0 0 0 0 0 0 0 0 0 0 0 0 0 0 0 0 0 0 0 0 0 0 0 0 0 0 0 0 0 0 0 0 0 0 0 0 0 0 0 0 0 0 0 0 0 0 0 0 0 0 0 0 0 0 0 0 0 0 0 0 0 0 0 0 0 0 0 0 0 0 0 0 0 0 0 0 0 0 0 0 0 0 0 0 0 0 0 0 0 0 0 0 0 0 0 0 0 0 0 0 0 0 0 0 0 0 0 0 0 0 0 0 0 0 0 0 0 0 0 0 0 0 0 0 0 0 0 0 0 0 0 0 0 0 0 0 0 0 0 0 0 0 0 0 0 0 0 0 0 0 0 0 0 0 0 0 0 0 0 0 0 0 0 0 0 0 0 0 0 0 0 0 0 0 0 0 0 0 0 0 0 0 0 0 0 0 0 0 0 0 0 0 0 0 0 0 0 0 0 0 0 0 0 0 0 0 0 0 0 0 0 0 0 0 0 0 0 0 0 0 0 0 0 0 0 0 0 0 0 0 0 0 0 0 0 0 0 0 0 0 0 0 0 0 0 0 0 0 0 0 0 0 0 0 0 0 0 0 0 0 0 0 0 0 0 0 8.67362e-19 
0.02 0.02 0.02 0.02 0.02 0.02 0.02 0.02 0.02 0.02 0.02 0.02 0.02 0.02 0.02 0.02 0.02 0.02 0.02 0.02 0.02 0.02 0.02 0.02 0.02 0.02 0.02 0.02 0.02 0.02 0.02 0.02 0.02 0.02 0.02 0.02 0.02 0.02 0.02 0.02 0.02 0.02 0.02 0.02 0.02 0.02 0.02 0.02 0.0199999 0.0199999 0.0199999 0.0199999 0.0199999 0.0199999 0.0199999 0.0199999 0.0199998 0.0199998 0.0199998 0.0199997 0.0199997 0.0199997 0.0199996 0.0199996 0.0199995 0.0199995 0.0199994 0.0199993 0.0199992 0.0199991 0.019999 0.0199989 0.0199987 0.0199986 0.0199984 0.0199982 0.019998 0.0199978 0.0199975 0.0199972 0.0199969 0.0199966 0.0199962 0.0199958 0.0199953 0.0199948 0.0199943 0.0199937 0.0199931 0.0199924 0.0199917 0.0199909 0.01999 0.0199891 0.0199881 0.019987 0.0199858 0.0199845 0.0199832 0.0199817 0.0199802 0.0199785 0.0199767 0.0199747 0.0199726 0.0199704 0.019968 0.0199654 0.0199626 0.0199597 0.0199565 0.019953 0.0199493 0.0199454 0.0199411 0.0199365 0.0199316 0.0199263 0.0199206 0.0199145 0.0199078 0.0199007 0.0198931 0.0198848 0.019876 0.0198665 0.0198563 0.0198453 0.0198336 0.0198211 0.0198077 0.0197934 0.0197781 0.019762 0.0197449 0.0197268 0.0197077 0.0196877 0.0196668 0.0196449 0.0196222 0.0195987 0.0195744 0.0195495 0.0195241 0.0194982 0.019472 0.0194456 0.0194192 0.0193928 0.0193666 0.0193407 0.0193149 0.0192896 0.0192649 0.0192412 0.0192187 0.0191975 0.0191779 0.0191599 0.0191435 0.0191289 0.0191161 0.0191052 0.0190961 0.0190888 0.0190834 0.0190796 0.0190775 0.019077 0.0190779 0.01908 0.0190831 0.0190872 0.0190919 0.0190969 0.0191021 0.0191072 0.0191118 0.0191156 0.0191183 0.0191195 0.0191191 0.0191165 0.0191116 0.0191041 0.0190935 0.0190798 0.0190627 0.0190419 0.0190175 0.0189891 0.0189569 0.0189207 0.0188805 0.0188365 0.0187886 0.018737 0.0186819 0.0186233 0.0185615 0.0184967 0.0184291 0.0183591 0.0182868 0.0182124 0.0181362 0.018058 0.0179778 0.0178953 0.0178102 0.0177218 0.0176294 0.0175317 0.0174271 0.0173142 0.0171922 0.0170604 0.0169177 0.016763 0.016595 0.016412 0.0162124 0.0159942 0.0157559 0.0154966 0.0152162 0.0149172 0.0146084 0.0142994 0.0139891 0.0136672 0.0133456 0.0129574 0.0124898 0.0119296 0.0112925 0.0105876 0.00981223 0.0089808 0.00809212 0.00718004 0.00624374 0.00525115 0.00415099 0.00295963 0.00168976 0.000346327 -0.00107238 -0.00258468 -0.00418999 -0.0058584 -0.00760361 -0.00946954 -0.0116491 -0.0138146 -0.0160127 -0.0182258 -0.0208496 -0.0252577 0 0 0 0 0 0 0 0 0 0 0 0 0 0 0 0 0 0 0 0 0 0 0 0 0 0 0 0 0 0 0 0 0 0 0 0 0 0 0 0 0 0 0 0 0 0 0 0 0 0 0 0 0 0 0 0 0 0 0 0 0 0 0 0 0 0 0 0 0 0 0 0 0 0 0 0 0 0 0 0 0 0 0 0 0 0 0 0 0 0 0 0 0 0 0 0 0 0 0 0 0 0 0 0 0 0 0 0 0 0 0 0 0 0 0 0 0 0 0 0 0 0 0 0 0 0 0 0 0 0 0 0 0 0 0 0 0 0 0 0 0 0 0 0 0 0 0 0 0 0 0 0 0 0 0 0 0 0 0 0 0 0 0 0 0 0 0 0 0 0 0 0 0 0 0 0 0 0 0 0 0 0 0 0 0 0 0 0 0 0 0 0 0 0 0 0 0 0 0 0 0 0 0 0 0 0 0 0 0 0 0 0 0 0 0 0 0 0 0 0 0 0 0 0 0 0 0 0 0 0 0 0 0 0 0 0 0 0 0 0 0 0 0 0 0 0 0 0 0 0 0 0 0 0 0 0 0 0 0 0 0 0 0 0 0 0 0 0 0 0 0 0 0 0 0 0 0 0 0 0 0 0 0 0 0 0 0 0 0 0 0 0 0 0 0 0 0 0 0 0 0 0 0 0 0 0 0 0 0 0 0 0 0 0 0 0 0 0 0 0 0 0 0 0 0 0 0 0 0 0 0 0 0 0 0 0 0 0 0 0 0 0 0 0 0 0 0 0 0 0 0 0 0 0 0 0 0 0 0 -0.00557993 -8.67362e-19 
0.02 0.02 0.02 0.02 0.02 0.02 0.02 0.02 0.02 0.02 0.02 0.02 0.02 0.02 0.02 0.02 0.02 0.02 0.02 0.02 0.02 0.02 0.02 0.02 0.02 0.02 0.02 0.02 0.02 0.02 0.02 0.02 0.02 0.02 0.02 0.02 0.02 0.02 0.02 0.02 0.02 0.02 0.02 0.02 0.02 0.02 0.02 0.02 0.0199999 0.0199999 0.0199999 0.0199999 0.0199999 0.0199999 0.0199999 0.0199999 0.0199998 0.0199998 0.0199998 0.0199998 0.0199997 0.0199997 0.0199997 0.0199996 0.0199996 0.0199995 0.0199994 0.0199994 0.0199993 0.0199992 0.0199991 0.019999 0.0199988 0.0199987 0.0199985 0.0199983 0.0199981 0.0199979 0.0199977 0.0199974 0.0199971 0.0199968 0.0199964 0.0199961 0.0199956 0.0199952 0.0199947 0.0199941 0.0199935 0.0199929 0.0199922 0.0199914 0.0199906 0.0199897 0.0199888 0.0199878 0.0199867 0.0199855 0.0199842 0.0199828 0.0199813 0.0199797 0.019978 0.0199762 0.0199742 0.0199721 0.0199698 0.0199673 0.0199647 0.0199618 0.0199588 0.0199555 0.019952 0.0199481 0.0199441 0.0199396 0.0199349 0.0199298 0.0199243 0.0199183 0.0199119 0.019905 0.0198976 0.0198896 0.019881 0.0198718 0.0198618 0.0198511 0.0198396 0.0198274 0.0198142 0.0198002 0.0197853 0.0197694 0.0197526 0.0197348 0.0197161 0.0196963 0.0196757 0.0196541 0.0196317 0.0196084 0.0195845 0.0195598 0.0195346 0.0195089 0.0194829 0.0194567 0.0194303 0.0194041 0.019378 0.0193521 0.0193266 0.0193016 0.0192771 0.0192534 0.0192309 0.0192095 0.0191895 0.0191711 0.0191542 0.019139 0.0191255 0.0191138 0.0191039 0.0190956 0.0190891 0.0190843 0.019081 0.0190791 0.0190786 0.0190793 0.019081 0.0190835 0.0190866 0.01909 0.0190936 0.0190969 0.0190999 0.019102 0.0191031 0.0191029 0.019101 0.0190971 0.0190909 0.0190822 0.0190707 0.0190562 0.0190385 0.0190173 0.0189926 0.0189643 0.0189323 0.0188967 0.0188574 0.0188144 0.018768 0.0187182 0.0186652 0.0186092 0.0185504 0.0184891 0.0184254 0.0183596 0.0182919 0.0182222 0.0181507 0.0180773 0.0180016 0.0179236 0.0178427 0.0177584 0.0176698 0.0175755 0.0174742 0.0173647 0.0172459 0.0171171 0.0169773 0.0168254 0.01666 0.0164795 0.0162822 0.0160666 0.0158315 0.0155767 0.0153036 0.0150153 0.0147186 0.014422 0.0141238 0.013803 0.0134399 0.0130292 0.0125419 0.0119749 0.0113338 0.0106277 0.00985503 0.00903058 0.00815357 0.00724025 0.0062801 0.00525826 0.004145 0.0029492 0.00167807 0.000322168 -0.00111168 -0.00263847 -0.00424424 -0.00590264 -0.00766315 -0.00956873 -0.0116198 -0.0136922 -0.0158231 -0.018018 -0.0196078 -0.0232588 -0.0257442 -0.0278827 -0.0307015 -0.0370702 0 0 0 0 0 0 0 0 0 0 0 0 0 0 0 0 0 0 0 0 0 0 0 0 0 0 0 0 0 0 0 0 0 0 0 0 0 0 0 0 0 0 0 0 0 0 0 0 0 0 0 0 0 0 0 0 0 0 0 0 0 0 0 0 0 0 0 0 0 0 0 0 0 0 0 0 0 0 0 0 0 0 0 0 0 0 0 0 0 0 0 0 0 0 0 0 0 0 0 0 0 0 0 0 0 0 0 0 0 0 0 0 0 0 0 0 0 0 0 0 0 0 0 0 0 0 0 0 0 0 0 0 0 0 0 0 0 0 0 0 0 0 0 0 0 0 0 0 0 0 0 0 0 0 0 0 0 0 0 0 0 0 0 0 0 0 0 0 0 0 0 0 0 0 0 0 0 0 0 0 0 0 0 0 0 0 0 0 0 0 0 0 0 0 0 0 0 0 0 0 0 0 0 0 0 0 0 0 0 0 0 0 0 0 0 0 0 0 0 0 0 0 0 0 0 0 0 0 0 0 0 0 0 0 0 0 0 0 0 0 0 0 0 0 0 0 0 0 0 0 0 0 0 0 0 0 0 0 0 0 0 0 0 0 0 0 0 0 0 0 0 0 0 0 0 0 0 0 0 0 0 0 0 0 0 0 0 0 0 0 0 0 0 0 0 0 0 0 0 0 0 0 0 0 0 0 0 0 0 0 0 0 0 0 0 0 0 0 0 0 0 0 0 0 0 0 0 0 0 0 0 0 0 0 0 0 0 0 0 0 0 0 0 0 0 0 0 0 0 0 0 0 0 -0.0241085 -0.0177074 -0.00926699 -2.1684e-19 
0.02 0.02 0.02 0.02 0.02 0.02 0.02 0.02 0.02 0.02 0.02 0.02 0.02 0.02 0.02 0.02 0.02 0.02 0.02 0.02 0.02 0.02 0.02 0.02 0.02 0.02 0.02 0.02 0.02 0.02 0.02 0.02 0.02 0.02 0.02 0.02 0.02 0.02 0.02 0.02 0.02 0.02 0.02 0.02 0.02 0.02 0.02 0.02 0.02 0.0199999 0.0199999 0.0199999 0.0199999 0.0199999 0.0199999 0.0199999 0.0199999 0.0199998 0.0199998 0.0199998 0.0199998 0.0199997 0.0199997 0.0199996 0.0199996 0.0199995 0.0199995 0.0199994 0.0199993 0.0199992 0.0199992 0.019999 0.0199989 0.0199988 0.0199986 0.0199985 0.0199983 0.0199981 0.0199979 0.0199976 0.0199973 0.0199971 0.0199967 0.0199964 0.019996 0.0199956 0.0199951 0.0199946 0.019994 0.0199934 0.0199928 0.0199921 0.0199913 0.0199905 0.0199896 0.0199887 0.0199877 0.0199865 0.0199854 0.0199841 0.0199827 0.0199812 0.0199796 0.0199779 0.019976 0.019974 0.0199718 0.0199695 0.019967 0.0199644 0.0199615 0.0199584 0.019955 0.0199514 0.0199475 0.0199433 0.0199388 0.0199339 0.0199286 0.0199229 0.0199167 0.0199101 0.0199029 0.0198952 0.0198869 0.0198779 0.0198682 0.0198579 0.0198467 0.0198348 0.019822 0.0198083 0.0197937 0.0197782 0.0197617 0.0197442 0.0197258 0.0197065 0.0196862 0.0196649 0.0196429 0.0196199 0.0195963 0.0195719 0.019547 0.0195216 0.0194958 0.0194698 0.0194436 0.0194175 0.0193915 0.0193657 0.0193404 0.0193155 0.0192911 0.0192676 0.0192449 0.0192234 0.0192031 0.0191843 0.0191668 0.019151 0.0191368 0.0191242 0.0191132 0.019104 0.0190963 0.0190901 0.0190854 0.0190821 0.0190801 0.0190791 0.0190791 0.0190798 0.0190811 0.0190827 0.0190844 0.0190859 0.0190869 0.0190873 0.0190866 0.0190846 0.0190811 0.0190757 0.0190682 0.0190583 0.0190458 0.0190304 0.0190121 0.0189905 0.0189658 0.0189377 0.0189062 0.0188714 0.0188333 0.0187919 0.0187475 0.0187001 0.01865 0.0185973 0.0185423 0.0184851 0.018426 0.018365 0.0183022 0.0182376 0.0181711 0.0181027 0.018032 0.0179589 0.0178827 0.0178028 0.0177182 0.0176277 0.0175301 0.0174243 0.0173092 0.0171841 0.0170478 0.0168992 0.0167369 0.0165594 0.0163653 0.0161533 0.0159229 0.0156746 0.0154107 0.0151342 0.0148487 0.0145574 0.0142566 0.0139329 0.0135608 0.0131235 0.0126166 0.0120409 0.0113977 0.0106903 0.00992128 0.00910124 0.0082302 0.00731041 0.00633309 0.00528615 0.00415849 0.00295119 0.00166691 0.000302767 -0.00115142 -0.00268251 -0.00430109 -0.00599663 -0.00777081 -0.00970177 -0.0116818 -0.0137541 -0.015886 -0.0181143 -0.0205647 -0.0229493 -0.0252497 -0.0270655 -0.0298689 -0.0335522 -0.0361376 -0.0380192 -0.0398982 -0.0427881 -0.0503872 0 0 0 0 0 0 0 0 0 0 0 0 0 0 0 0 0 0 0 0 0 0 0 0 0 0 0 0 0 0 0 0 0 0 0 0 0 0 0 0 0 0 0 0 0 0 0 0 0 0 0 0 0 0 0 0 0 0 0 0 0 0 0 0 0 0 0 0 0 0 0 0 0 0 0 0 0 0 0 0 0 0 0 0 0 0 0 0 0 0 0 0 0 0 0 0 0 0 0 0 0 0 0 0 0 0 0 0 0 0 0 0 0 0 0 0 0 0 0 0 0 0 0 0 0 0 0 0 0 0 0 0 0 0 0 0 0 0 0 0 0 0 0 0 0 0 0 0 0 0 0 0 0 0 0 0 0 0 0 0 0 0 0 0 0 0 0 0 0 0 0 0 0 0 0 0 0 0 0 0 0 0 0 0 0 0 0 0 0 0 0 0 0 0 0 0 0 0 0 0 0 0 0 0 0 0 0 0 0 0 0 0 0 0 0 0 0 0 0 0 0 0 0 0 0 0 0 0 0 0 0 0 0 0 0 0 0 0 0 0 0 0 0 0 0 0 0 0 0 0 0 0 0 0 0 0 0 0 0 0 0 0 0 0 0 0 0 0 0 0 0 0 0 0 0 0 0 0 0 0 0 0 0 0 0 0 0 0 0 0 0 0 0 0 0 0 0 0 0 0 0 0 0 0 0 0 0 0 0 0 0 0 0 0 0 0 0 0 0 0 0 0 0 0 0 0 0 0 0 0 0 0 0 0 0 0 0 0 0 0 0 0 0 0 0 -0.0401315 -0.0396003 -0.0348106 -0.028343 -0.0205542 -0.011403 -2.60209e-18 
0.02 0.02 0.02 0.02 0.02 0.02 0.02 0.02 0.02 0.02 0.02 0.02 0.02 0.02 0.02 0.02 0.02 0.02 0.02 0.02 0.02 0.02 0.02 0.02 0.02 0.02 0.02 0.02 0.02 0.02 0.02 0.02 0.02 0.02 0.02 0.02 0.02 0.02 0.02 0.02 0.02 0.02 0.02 0.02 0.02 0.02 0.02 0.02 0.02 0.02 0.0199999 0.0199999 0.0199999 0.0199999 0.0199999 0.0199999 0.0199999 0.0199999 0.0199998 0.0199998 0.0199998 0.0199998 0.0199997 0.0199997 0.0199996 0.0199996 0.0199995 0.0199995 0.0199994 0.0199993 0.0199992 0.0199991 0.019999 0.0199989 0.0199988 0.0199986 0.0199985 0.0199983 0.0199981 0.0199979 0.0199976 0.0199974 0.0199971 0.0199967 0.0199964 0.019996 0.0199956 0.0199951 0.0199946 0.0199941 0.0199935 0.0199929 0.0199922 0.0199914 0.0199906 0.0199897 0.0199888 0.0199878 0.0199867 0.0199855 0.0199842 0.0199828 0.0199814 0.0199798 0.0199781 0.0199762 0.0199742 0.019972 0.0199697 0.0199672 0.0199645 0.0199616 0.0199585 0.0199551 0.0199514 0.0199474 0.0199431 0.0199385 0.0199335 0.019928 0.0199222 0.0199158 0.019909 0.0199015 0.0198935 0.0198849 0.0198756 0.0198655 0.0198547 0.0198431 0.0198307 0.0198174 0.0198032 0.0197881 0.019772 0.019755 0.019737 0.019718 0.0196981 0.0196773 0.0196556 0.0196331 0.0196098 0.0195858 0.0195612 0.0195361 0.0195106 0.0194848 0.0194589 0.0194329 0.019407 0.0193814 0.0193561 0.0193313 0.019307 0.0192835 0.0192607 0.019239 0.0192185 0.0191991 0.0191812 0.0191646 0.0191496 0.0191361 0.0191241 0.0191136 0.0191046 0.019097 0.0190908 0.0190859 0.0190821 0.0190794 0.0190775 0.0190763 0.0190755 0.0190751 0.0190747 0.0190742 0.0190732 0.0190716 0.019069 0.0190652 0.0190599 0.019053 0.019044 0.0190329 0.0190193 0.0190032 0.0189844 0.0189626 0.018938 0.0189103 0.0188797 0.018846 0.0188096 0.0187703 0.0187284 0.018684 0.0186373 0.0185885 0.0185378 0.0184852 0.018431 0.0183751 0.0183175 0.0182582 0.0181971 0.0181341 0.0180688 0.0180009 0.0179297 0.0178545 0.0177743 0.017688 0.0175946 0.0174928 0.0173819 0.0172608 0.0171284 0.0169836 0.016825 0.0166512 0.0164611 0.016254 0.0160299 0.0157898 0.0155359 0.0152705 0.0149943 0.0147049 0.0143964 0.0140548 0.0136674 0.01322 0.012707 0.0121272 0.0114816 0.0107735 0.0100066 0.00918749 0.00831549 0.00738731 0.00639349 0.00533023 0.00418923 0.00296935 0.00166962 0.000291208 -0.00116953 -0.0027203 -0.00435522 -0.00607941 -0.00788738 -0.00978607 -0.0118034 -0.0138423 -0.0159914 -0.0182378 -0.020605 -0.022946 -0.0253018 -0.0275803 -0.0297216 -0.0329558 -0.0352888 -0.03739 -0.0396829 -0.0407186 -0.0456454 -0.0479265 -0.0493672 -0.0501193 -0.0507425 -0.0529853 -0.0628902 0 0 0 0 0 0 0 0 0 0 0 0 0 0 0 0 0 0 0 0 0 0 0 0 0 0 0 0 0 0 0 0 0 0 0 0 0 0 0 0 0 0 0 0 0 0 0 0 0 0 0 0 0 0 0 0 0 0 0 0 0 0 0 0 0 0 0 0 0 0 0 0 0 0 0 0 0 0 0 0 0 0 0 0 0 0 0 0 0 0 0 0 0 0 0 0 0 0 0 0 0 0 0 0 0 0 0 0 0 0 0 0 0 0 0 0 0 0 0 0 0 0 0 0 0 0 0 0 0 0 0 0 0 0 0 0 0 0 0 0 0 0 0 0 0 0 0 0 0 0 0 0 0 0 0 0 0 0 0 0 0 0 0 0 0 0 0 0 0 0 0 0 0 0 0 0 0 0 0 0 0 0 0 0 0 0 0 0 0 0 0 -0.0468411 -0.05186 -0.0534209 -0.053917 -0.0540797 -0.0541154 -0.0540972 -0.0540562 -0.0540062 -0.0539544 -0.0539048 -0.05386 -0.0538218 -0.0537911 -0.0537684 -0.0537542 -0.0537482 -0.0537504 -0.0537601 -0.0537769 -0.0537998 -0.0538282 -0.053861 -0.0538975 -0.0539369 -0.0539783 -0.0540212 -0.0540648 -0.0541087 -0.0541526 -0.0541962 -0.0542392 -0.0542818 -0.0543238 -0.0543653 -0.0544063 -0.0544464 -0.0544851 -0.0545213 -0.0545532 -0.0545784 -0.0545941 -0.0545975 -0.0545864 -0.0545601 -0.0545199 -0.0544687 -0.0544112 -0.0543523 -0.0542905 -0.0542307 -0.0541688 -0.0541883 -0.0544869 -0.0550451 -0.057002 -0.0648505 -0.0598185 0 0 0 0 0 0 0 0 0 0 0 0 0 0 0 0 0 0 0 0 0 0 0 0 0 0 0 0 0 0 0 0 0 0 0 0 0 0 0 0 0 0 0 0 0 0 0 0 0 0 0 0 0 0 0 0 0 0 0 0 0 0 0 0 0 0 0 0 0 -0.0459792 -0.0503935 -0.0520923 -0.0527286 -0.0529983 -0.0530815 -0.0530634 -0.0529876 -0.0528742 -0.0527353 -0.052578 -0.0524066 -0.0522232 -0.0520228 -0.051776 -0.051328 -0.0504477 -0.0496477 -0.0487965 -0.0476835 -0.0460719 -0.0434854 -0.0403508 -0.0356044 -0.0294676 -0.0219884 -0.0126209 1.30104e-18 