# vtk DataFile Version 2.0
iteration 2673
ASCII

DATASET STRUCTURED_POINTS
DIMENSIONS 621 64 1
ORIGIN 0 0 0
SPACING 0.00161031 0.00161031 0.00161031

POINT_DATA 39744
SCALARS P float 1
LOOKUP_TABLE default
0 0 0 0 0 0 0 0 0 0 0 0 0 0 0 0 0 0 0 0 0 0 0 0 0 0 0 0 0 0 0 0 0 0 0 0 0 0 0 0 0 0 0 0 0 0 0 0 0 0 0 0 0 0 0 0 0 0 0 0 0 0 0 0 0 0 0 0 0 0 0 0 0 0 0 0 0 0 0 0 0 0 0 0 0 0 0 0 0 0 0 0 0 0 0 0 0 0 0 0 0 0 0 0 0 0 0 0 0 0 0 0 0 0 0 0 0 0 0 0 0 0 0 0 0 0 0 0 0 0 0 0 0 0 0 0 0 0 0 0 0 0 0 0 0 0 0 0 0 0 0 0 0 0 0 0 0 0 0 0 0 0 0 0 0 0 0 0 0 0 0 0 0 0 0 0 0 0 0 0 0 0 0 0 0 0 0 0 0 0 0 0 0 0 0 0 0 0 0 0 0 0 0 0 0 0 0 0 0 0 0 0 0 0 0 0 0 0 0 0 0 0 0 0 0 0 0 0 0 0 0 0 0 0 0 0 0 0 0 0 0 0 0 0 0 0 0 0 0 0 0 0 0 0 0 0 0 0 0 0 0 0 0 0 0 0 0 0 0 0 0 0 0 0 0 0 0 0 0 0 0 0 0 0 0 0 0 0 0 0 0 0 0 0 0 0 0 0 0 0 0 0 0 0 0 0 0 0 0 0 0 0 0 0 0 0 0 0 0 0 0 0 0 0 0 0 0 0 0 0 0 0 0 0 0 0 0 0 0 0 0 0 0 0 0 0 0 0 0 0 0 0 0 0 0 0 0 0 0 0 0 0 0 0 0 0 0 0 0 0 0 0 0 0 0 0 0 0 0 0 0 0 0 0 0 0 0 0 0 0 0 0 0 0 0 0 0 0 0 0 0 0 0 0 0 0 0 0 0 0 0 0 0 0 0 0 0 0 0 0 0 0 0 0 0 0 0 0 0 0 0 0 0 0 0 0 0 0 0 0 0 0 0 0 0 0 0 0 0 0 0 0 0 0 0 0 0 0 0 0 0 0 0 0 0 0 0 0 0 0 0 0 0 0 0 0 0 0 0 0 0 0 0 0 0 0 0 0 0 0 0 0 0 0 0 0 0 0 0 0 0 0 0 0 0 0 0 0 0 0 0 0 0 0 0 0 0 0 0 0 0 0 0 0 0 0 0 0 0 0 0 0 0 0 0 0 0 0 0 0 0 0 0 0 0 0 0 0 0 0 0 0 0 0 0 0 0 0 0 0 0 0 0 0 0 0 0 0 0 0 0 0 0 0 0 0 0 0 0 0 0 0 0 0 0 0 0 0 0 0 0 0 0 0 0 0 0 0 0 0 0 0 0 0 0 0 0 0 0 0 0 0 0 0 0 0 0 0 0 0 0 
0.0184079 0.0184604 0.0183525 0.0183204 0.0182912 0.0182648 0.0182405 0.0182181 0.0181973 0.0181782 0.0181607 0.0181449 0.0181307 0.0181182 0.0181074 0.0180982 0.0180907 0.0180848 0.0180805 0.0180779 0.0180768 0.0180774 0.0180795 0.0180833 0.0180886 0.0180954 0.0181038 0.0181136 0.0181251 0.018138 0.0181524 0.0181682 0.0181856 0.0182043 0.0182245 0.0182461 0.018269 0.0182933 0.0183189 0.0183458 0.018374 0.0184034 0.0184339 0.0184656 0.0184984 0.0185322 0.018567 0.0186028 0.0186395 0.0186771 0.0187154 0.0187546 0.0187945 0.0188351 0.0188763 0.0189181 0.0189606 0.0190036 0.0190471 0.0190911 0.0191356 0.0191805 0.0192259 0.0192717 0.0193178 0.0193643 0.0194111 0.0194581 0.0195055 0.0195531 0.0196009 0.0196489 0.019697 0.0197452 0.0197933 0.0198411 0.0198878 0.0199318 0.0199697 0.0199984 0.0200313 0.0200695 0.0201096 0.0201509 0.0201928 0.0202351 0.0202776 0.0203203 0.020363 0.0204056 0.0204482 0.0204905 0.0205326 0.0205744 0.0206159 0.0206569 0.0206975 0.0207377 0.0207772 0.0208162 0.0208546 0.0208924 0.0209294 0.0209657 0.0210013 0.021036 0.0210699 0.021103 0.0211352 0.0211665 0.0211968 0.0212262 0.0212546 0.021282 0.0213084 0.0213337 0.021358 0.0213812 0.0214034 0.0214244 0.0214443 0.0214631 0.0214808 0.0214974 0.0215128 0.0215271 0.0215402 0.0215521 0.0215629 0.0215726 0.0215811 0.0215884 0.0215946 0.0215997 0.0216036 0.0216064 0.0216081 0.0216086 0.021608 0.0216064 0.0216036 0.0215998 0.0215949 0.021589 0.0215821 0.0215742 0.0215652 0.0215553 0.0215445 0.0215328 0.0215201 0.0215066 0.0214922 0.021477 0.021461 0.0214442 0.0214267 0.0214084 0.0213895 0.0213699 0.0213497 0.021329 0.0213076 0.0212858 0.0212634 0.0212406 0.0212174 0.0211938 0.0211698 0.0211456 0.021121 0.0210962 0.0210712 0.021046 0.0210206 0.0209952 0.0209697 0.0209441 0.0209185 0.020893 0.0208675 0.0208421 0.0208168 0.0207917 0.0207667 0.020742 0.0207174 0.0206932 0.0206692 0.0206455 0.0206222 0.0205992 0.0205766 0.0205543 0.0205325 0.0205111 0.0204901 0.0204696 0.0204496 0.02043 0.0204109 0.0203924 0.0203743 0.0203567 0.0203396 0.0203231 0.0203071 0.0202916 0.0202766 0.0202621 0.0202482 0.0202348 0.0202218 0.0202094 0.0201975 0.0201861 0.0201751 0.0201647 0.0201547 0.0201451 0.020136 0.0201274 0.0201191 0.0201113 0.0201039 0.0200968 0.0200902 0.0200839 0.020078 0.0200724 0.0200671 0.0200621 0.0200575 0.0200531 0.020049 0.0200452 0.0200416 0.0200383 0.0200351 0.0200322 0.0200295 0.020027 0.0200247 0.0200226 0.0200206 0.0200187 0.020017 0.0200155 0.020014 0.0200127 0.0200115 0.0200104 0.0200094 0.0200084 0.0200076 0.0200068 0.0200061 0.0200055 0.0200049 0.0200044 0.0200039 0.0200034 0.0200031 0.0200027 0.0200024 0.0200021 0.0200018 0.0200016 0.0200014 0.0200012 0.020001 0.0200009 0.0200008 0.0200006 0.0200005 0.0200004 0.0200004 0.0200003 0.0200002 0.0200002 0.0200001 0.0200001 0.02 0.02 0.0199999 0.0199999 0.0199999 0.0199999 0.0199999 0.0199998 0.0199998 0.0199998 0.0199998 0.0199998 0.0199998 0.0199998 0.0199998 0.0199999 0.0199999 0.0199999 0.0199999 0.02 0.02 0.02 0.0200001 0.0200002 0.0200002 0.0200003 0.0200004 0.0200005 0.0200006 0.0200007 0.0200008 0.020001 0.0200011 0.0200013 0.0200015 0.0200016 0.0200019 0.0200021 0.0200023 0.0200026 0.0200029 0.0200032 0.0200035 0.0200039 0.0200043 0.0200047 0.0200051 0.0200056 0.020006 0.0200066 0.0200071 0.0200077 0.0200083 0.020009 0.0200097 0.0200104 0.0200112 0.020012 0.0200129 0.0200138 0.0200147 0.0200157 0.0200167 0.0200178 0.020019 0.0200202 0.0200214 0.0200227 0.0200241 0.0200255 0.0200269 0.0200284 0.02003 0.0200316 0.0200333 0.0200351 0.0200369 0.0200388 0.0200407 0.0200428 0.0200448 0.020047 0.0200492 0.0200515 0.0200538 0.0200562 0.0200587 0.0200612 0.0200638 0.0200665 0.0200692 0.020072 0.0200749 0.0200778 0.0200808 0.0200838 0.0200869 0.0200901 0.0200933 0.0200966 0.0200999 0.0201033 0.0201067 0.0201102 0.0201138 0.0201174 0.020121 0.0201247 0.0201284 0.0201322 0.020136 0.0201398 0.0201436 0.0201475 0.0201514 0.0201554 0.0201593 0.0201633 0.0201673 0.0201713 0.0201753 0.0201793 0.0201833 0.0201873 0.0201914 0.0201954 0.0201993 0.0202033 0.0202073 0.0202112 0.0202151 0.020219 0.0202229 0.0202267 0.0202305 0.0202342 0.0202379 0.0202416 0.0202452 0.0202488 0.0202523 0.0202557 0.0202591 0.0202624 0.0202656 0.0202688 0.0202719 0.0202749 0.0202779 0.0202808 0.0202836 0.0202863 0.0202889 0.0202914 0.0202939 0.0202963 0.0202985 0.0203007 0.0203028 0.0203047 0.0203066 0.0203084 0.0203102 0.0203118 0.0203134 0.020315 0.0203164 0.0203178 0.0203192 0.0203204 0.0203216 0.0203227 0.0203237 0.0203247 0.0203257 0.0203265 0.0203273 0.0203281 0.0203288 0.0203295 0.0203301 0.0203307 0.0203313 0.0203318 0.0203323 0.0203328 0.0203333 0.0203337 0.0203342 0.0203347 0.0203351 0.0203356 0.0203361 0.0203366 0.0203371 0.0203376 0.0203382 0.0203388 0.0203394 0.0203401 0.0203408 0.0203416 0.0203424 0.0203432 0.0203441 0.0203451 0.0203461 0.0203472 0.0203484 0.0203496 0.0203508 0.0203522 0.0203536 0.020355 0.0203565 0.0203581 0.0203597 0.0203614 0.0203631 0.0203648 0.0203666 0.0203685 0.0203703 0.0203722 0.0203741 0.0203761 0.020378 0.0203799 0.0203818 0.0203837 0.0203855 0.0203873 0.020389 0.0203907 0.0203923 0.0203938 0.0203952 0.0203964 0.0203975 0.0203985 0.0203993 0.0203999 0.0204003 0.0204005 0.0204005 0.0204002 0.0203996 0.0203987 0.0203976 0.0203961 0.0203942 0.020392 0.0203894 0.0203865 0.0203831 0.0203793 0.020375 0.0203703 0.0203652 0.0203596 0.0203535 0.020347 0.02034 0.0203325 0.0203246 0.0203162 0.0203074 0.0202982 0.0202885 0.0202785 0.0202681 0.0202573 0.0202463 0.0202349 0.0202233 0.0202115 0.0201995 0.0201874 0.0201752 0.0201629 0.0201506 0.0201383 0.020126 0.0201138 0.0201018 0.0200898 0.0200781 0.0200665 0.0200552 0.020044 0.0200331 0.0200225 0.020012 0.0200018 0.0199919 0.0199822 0.0199728 0.0199636 0.0199547 0.0199461 0.0199378 0.0199299 0.0199225 0.0199155 0.0199092 0.0199035 0.0198986 0.0198947 0.0198918 0.0198901 0.0198896 0.0198905 0.0198927 0.0198964 0.0199006 0.019898 0.0198941 0.0198918 0.0198925 0.0198947 0.0198973 0.0198989 0.0198978 0.0198921 0.019879 0.0198546 0.0198127 0.0197443 0.0196359 0.0194669 0.0192078 0.0188205 0.0182905 0.0178499 0.0196793 0 0 0 0 
0.0184079 0.0184074 0.0183562 0.0183224 0.0182927 0.018266 0.0182415 0.0182188 0.018198 0.0181788 0.0181613 0.0181454 0.0181312 0.0181187 0.0181079 0.0180987 0.0180911 0.0180852 0.0180809 0.0180783 0.0180773 0.0180778 0.0180799 0.0180837 0.0180889 0.0180958 0.0181041 0.018114 0.0181254 0.0181383 0.0181527 0.0181685 0.0181859 0.0182046 0.0182248 0.0182463 0.0182693 0.0182936 0.0183192 0.018346 0.0183742 0.0184035 0.0184341 0.0184657 0.0184985 0.0185323 0.0185671 0.0186029 0.0186396 0.0186772 0.0187155 0.0187547 0.0187946 0.0188351 0.0188764 0.0189182 0.0189607 0.0190037 0.0190472 0.0190912 0.0191357 0.0191806 0.019226 0.0192717 0.0193179 0.0193643 0.0194111 0.0194582 0.0195055 0.0195531 0.0196009 0.0196489 0.0196969 0.019745 0.0197927 0.0198398 0.0198851 0.0199274 0.0199658 0.0200003 0.0200366 0.0200751 0.0201152 0.0201563 0.0201981 0.0202404 0.0202828 0.0203254 0.0203681 0.0204107 0.0204531 0.0204954 0.0205375 0.0205792 0.0206206 0.0206616 0.0207021 0.0207421 0.0207816 0.0208205 0.0208588 0.0208965 0.0209334 0.0209696 0.0210051 0.0210397 0.0210735 0.0211065 0.0211386 0.0211697 0.0212 0.0212292 0.0212575 0.0212848 0.0213111 0.0213363 0.0213605 0.0213836 0.0214056 0.0214265 0.0214464 0.021465 0.0214826 0.0214991 0.0215144 0.0215285 0.0215415 0.0215533 0.021564 0.0215736 0.021582 0.0215892 0.0215953 0.0216002 0.021604 0.0216067 0.0216082 0.0216087 0.021608 0.0216062 0.0216033 0.0215994 0.0215944 0.0215884 0.0215814 0.0215734 0.0215643 0.0215543 0.0215434 0.0215315 0.0215188 0.0215052 0.0214907 0.0214754 0.0214593 0.0214424 0.0214248 0.0214065 0.0213875 0.0213679 0.0213476 0.0213268 0.0213054 0.0212834 0.021261 0.0212382 0.0212149 0.0211912 0.0211672 0.0211429 0.0211183 0.0210935 0.0210684 0.0210432 0.0210178 0.0209923 0.0209668 0.0209412 0.0209157 0.0208901 0.0208646 0.0208392 0.0208139 0.0207888 0.0207639 0.0207391 0.0207146 0.0206904 0.0206664 0.0206428 0.0206195 0.0205965 0.0205739 0.0205517 0.02053 0.0205086 0.0204877 0.0204672 0.0204472 0.0204277 0.0204087 0.0203902 0.0203721 0.0203546 0.0203376 0.0203211 0.0203052 0.0202897 0.0202748 0.0202604 0.0202465 0.0202332 0.0202203 0.0202079 0.0201961 0.0201847 0.0201738 0.0201634 0.0201535 0.020144 0.0201349 0.0201263 0.0201182 0.0201104 0.020103 0.020096 0.0200894 0.0200832 0.0200773 0.0200717 0.0200665 0.0200616 0.0200569 0.0200526 0.0200485 0.0200447 0.0200412 0.0200379 0.0200348 0.0200319 0.0200292 0.0200268 0.0200245 0.0200223 0.0200203 0.0200185 0.0200168 0.0200153 0.0200139 0.0200126 0.0200114 0.0200103 0.0200093 0.0200083 0.0200075 0.0200067 0.020006 0.0200054 0.0200048 0.0200043 0.0200038 0.0200034 0.020003 0.0200027 0.0200024 0.0200021 0.0200018 0.0200016 0.0200014 0.0200012 0.020001 0.0200009 0.0200008 0.0200006 0.0200005 0.0200004 0.0200003 0.0200003 0.0200002 0.0200001 0.0200001 0.02 0.02 0.02 0.0199999 0.0199999 0.0199999 0.0199999 0.0199998 0.0199998 0.0199998 0.0199998 0.0199998 0.0199998 0.0199998 0.0199998 0.0199998 0.0199999 0.0199999 0.0199999 0.0199999 0.02 0.02 0.02 0.0200001 0.0200002 0.0200002 0.0200003 0.0200004 0.0200005 0.0200006 0.0200007 0.0200008 0.0200009 0.0200011 0.0200013 0.0200014 0.0200016 0.0200018 0.0200021 0.0200023 0.0200026 0.0200029 0.0200032 0.0200035 0.0200038 0.0200042 0.0200046 0.0200051 0.0200055 0.020006 0.0200065 0.0200071 0.0200077 0.0200083 0.0200089 0.0200096 0.0200103 0.0200111 0.0200119 0.0200128 0.0200137 0.0200146 0.0200156 0.0200166 0.0200177 0.0200189 0.02002 0.0200213 0.0200226 0.0200239 0.0200253 0.0200268 0.0200283 0.0200298 0.0200315 0.0200332 0.0200349 0.0200367 0.0200386 0.0200405 0.0200425 0.0200446 0.0200467 0.0200489 0.0200512 0.0200535 0.0200559 0.0200584 0.0200609 0.0200635 0.0200662 0.0200689 0.0200717 0.0200745 0.0200774 0.0200804 0.0200834 0.0200865 0.0200897 0.0200929 0.0200961 0.0200995 0.0201028 0.0201063 0.0201098 0.0201133 0.0201169 0.0201205 0.0201242 0.0201279 0.0201316 0.0201354 0.0201392 0.020143 0.0201469 0.0201508 0.0201547 0.0201587 0.0201626 0.0201666 0.0201706 0.0201746 0.0201786 0.0201826 0.0201866 0.0201906 0.0201946 0.0201985 0.0202025 0.0202064 0.0202104 0.0202143 0.0202181 0.020222 0.0202258 0.0202296 0.0202333 0.020237 0.0202406 0.0202442 0.0202478 0.0202512 0.0202547 0.020258 0.0202613 0.0202646 0.0202677 0.0202708 0.0202738 0.0202768 0.0202796 0.0202824 0.0202851 0.0202877 0.0202902 0.0202927 0.020295 0.0202973 0.0202995 0.0203016 0.0203036 0.0203055 0.0203074 0.0203092 0.0203109 0.0203126 0.0203141 0.0203156 0.0203171 0.0203184 0.0203197 0.0203209 0.020322 0.0203231 0.0203241 0.0203251 0.020326 0.0203268 0.0203276 0.0203284 0.0203291 0.0203297 0.0203303 0.0203309 0.0203315 0.0203321 0.0203326 0.0203331 0.0203336 0.0203341 0.0203346 0.0203351 0.0203356 0.0203361 0.0203366 0.0203372 0.0203377 0.0203383 0.020339 0.0203396 0.0203403 0.020341 0.0203418 0.0203427 0.0203435 0.0203445 0.0203454 0.0203465 0.0203476 0.0203487 0.0203499 0.0203512 0.0203525 0.0203539 0.0203554 0.0203569 0.0203584 0.02036 0.0203617 0.0203634 0.0203651 0.0203669 0.0203687 0.0203705 0.0203724 0.0203743 0.0203761 0.020378 0.0203799 0.0203817 0.0203836 0.0203854 0.0203871 0.0203888 0.0203904 0.0203919 0.0203934 0.0203947 0.0203959 0.020397 0.0203979 0.0203986 0.0203992 0.0203995 0.0203996 0.0203995 0.0203992 0.0203986 0.0203976 0.0203964 0.0203948 0.020393 0.0203907 0.0203881 0.020385 0.0203816 0.0203778 0.0203735 0.0203688 0.0203636 0.020358 0.0203519 0.0203454 0.0203383 0.0203309 0.020323 0.0203146 0.0203058 0.0202965 0.0202869 0.0202769 0.0202665 0.0202557 0.0202447 0.0202334 0.0202218 0.02021 0.0201981 0.020186 0.0201738 0.0201615 0.0201492 0.020137 0.0201248 0.0201126 0.0201006 0.0200887 0.020077 0.0200655 0.0200542 0.0200432 0.0200323 0.0200217 0.0200113 0.0200012 0.0199914 0.0199817 0.0199723 0.0199632 0.0199543 0.0199458 0.0199375 0.0199296 0.0199221 0.0199151 0.0199086 0.0199028 0.0198977 0.0198934 0.0198901 0.0198879 0.0198868 0.019887 0.0198884 0.0198911 0.0198943 0.0198953 0.0198923 0.0198901 0.0198896 0.0198903 0.0198912 0.0198912 0.0198886 0.0198815 0.0198671 0.0198412 0.0197977 0.0197277 0.0196171 0.0194458 0.019185 0.0188029 0.0182976 0.0177642 0.0173105 0.0157848 0.0134763 0.0126704 0 
0.0184079 0.0183907 0.0183551 0.0183229 0.0182935 0.0182666 0.0182419 0.0182192 0.0181982 0.018179 0.0181614 0.0181456 0.0181314 0.0181189 0.0181081 0.0180989 0.0180914 0.0180855 0.0180812 0.0180786 0.0180776 0.0180781 0.0180803 0.018084 0.0180893 0.0180961 0.0181045 0.0181144 0.0181258 0.0181387 0.0181531 0.018169 0.0181863 0.0182051 0.0182253 0.0182468 0.0182698 0.0182941 0.0183197 0.0183466 0.0183747 0.0184041 0.0184346 0.0184663 0.018499 0.0185328 0.0185677 0.0186034 0.0186401 0.0186777 0.018716 0.0187552 0.0187951 0.0188357 0.0188769 0.0189188 0.0189612 0.0190042 0.0190478 0.0190918 0.0191363 0.0191812 0.0192266 0.0192723 0.0193184 0.0193649 0.0194117 0.0194587 0.0195061 0.0195536 0.0196014 0.0196493 0.0196972 0.0197449 0.019792 0.0198379 0.0198817 0.0199228 0.0199615 0.019999 0.0200372 0.0200765 0.0201169 0.0201582 0.0202 0.0202423 0.0202848 0.0203274 0.02037 0.0204126 0.020455 0.0204973 0.0205393 0.0205811 0.0206224 0.0206634 0.0207039 0.0207439 0.0207834 0.0208223 0.0208606 0.0208982 0.0209351 0.0209713 0.0210067 0.0210413 0.0210751 0.021108 0.0211401 0.0211712 0.0212014 0.0212306 0.0212589 0.0212862 0.0213124 0.0213376 0.0213617 0.0213848 0.0214068 0.0214276 0.0214474 0.0214661 0.0214836 0.0215 0.0215153 0.0215294 0.0215423 0.0215541 0.0215648 0.0215743 0.0215826 0.0215898 0.0215958 0.0216007 0.0216045 0.0216071 0.0216086 0.021609 0.0216083 0.0216065 0.0216036 0.0215996 0.0215946 0.0215885 0.0215814 0.0215733 0.0215643 0.0215542 0.0215433 0.0215314 0.0215186 0.0215049 0.0214904 0.021475 0.0214589 0.021442 0.0214243 0.021406 0.021387 0.0213673 0.021347 0.0213261 0.0213047 0.0212827 0.0212603 0.0212374 0.0212141 0.0211904 0.0211664 0.021142 0.0211174 0.0210925 0.0210674 0.0210422 0.0210168 0.0209913 0.0209658 0.0209402 0.0209146 0.020889 0.0208635 0.0208381 0.0208128 0.0207877 0.0207628 0.020738 0.0207135 0.0206893 0.0206653 0.0206417 0.0206184 0.0205954 0.0205729 0.0205507 0.0205289 0.0205076 0.0204867 0.0204662 0.0204462 0.0204268 0.0204077 0.0203892 0.0203712 0.0203537 0.0203368 0.0203203 0.0203044 0.0202889 0.020274 0.0202597 0.0202458 0.0202324 0.0202196 0.0202073 0.0201954 0.0201841 0.0201732 0.0201628 0.0201529 0.0201435 0.0201344 0.0201259 0.0201177 0.0201099 0.0201026 0.0200956 0.020089 0.0200828 0.0200769 0.0200714 0.0200662 0.0200613 0.0200567 0.0200524 0.0200483 0.0200445 0.020041 0.0200377 0.0200346 0.0200317 0.0200291 0.0200266 0.0200243 0.0200222 0.0200202 0.0200184 0.0200167 0.0200152 0.0200138 0.0200125 0.0200113 0.0200102 0.0200092 0.0200083 0.0200074 0.0200067 0.020006 0.0200054 0.0200048 0.0200043 0.0200038 0.0200034 0.020003 0.0200026 0.0200023 0.0200021 0.0200018 0.0200016 0.0200014 0.0200012 0.020001 0.0200009 0.0200007 0.0200006 0.0200005 0.0200004 0.0200003 0.0200003 0.0200002 0.0200001 0.0200001 0.02 0.02 0.02 0.0199999 0.0199999 0.0199999 0.0199999 0.0199998 0.0199998 0.0199998 0.0199998 0.0199998 0.0199998 0.0199998 0.0199998 0.0199998 0.0199998 0.0199999 0.0199999 0.0199999 0.02 0.02 0.02 0.0200001 0.0200001 0.0200002 0.0200003 0.0200004 0.0200005 0.0200006 0.0200007 0.0200008 0.0200009 0.0200011 0.0200012 0.0200014 0.0200016 0.0200018 0.020002 0.0200023 0.0200026 0.0200028 0.0200031 0.0200035 0.0200038 0.0200042 0.0200046 0.020005 0.0200055 0.020006 0.0200065 0.020007 0.0200076 0.0200082 0.0200089 0.0200096 0.0200103 0.020011 0.0200118 0.0200127 0.0200136 0.0200145 0.0200155 0.0200165 0.0200176 0.0200187 0.0200199 0.0200211 0.0200224 0.0200238 0.0200252 0.0200266 0.0200281 0.0200297 0.0200313 0.020033 0.0200347 0.0200365 0.0200384 0.0200403 0.0200423 0.0200443 0.0200465 0.0200486 0.0200509 0.0200532 0.0200556 0.020058 0.0200605 0.0200631 0.0200658 0.0200685 0.0200712 0.0200741 0.0200769 0.0200799 0.0200829 0.020086 0.0200891 0.0200923 0.0200956 0.0200989 0.0201022 0.0201056 0.0201091 0.0201126 0.0201161 0.0201197 0.0201234 0.0201271 0.0201308 0.0201345 0.0201383 0.0201421 0.020146 0.0201499 0.0201537 0.0201577 0.0201616 0.0201655 0.0201695 0.0201735 0.0201774 0.0201814 0.0201854 0.0201893 0.0201933 0.0201972 0.0202012 0.0202051 0.020209 0.0202128 0.0202167 0.0202205 0.0202242 0.020228 0.0202317 0.0202353 0.0202389 0.0202425 0.020246 0.0202494 0.0202528 0.0202561 0.0202594 0.0202626 0.0202657 0.0202688 0.0202718 0.0202747 0.0202775 0.0202802 0.0202829 0.0202855 0.020288 0.0202905 0.0202928 0.0202951 0.0202973 0.0202994 0.0203015 0.0203035 0.0203054 0.0203072 0.0203089 0.0203106 0.0203122 0.0203137 0.0203151 0.0203165 0.0203178 0.0203191 0.0203202 0.0203213 0.0203224 0.0203234 0.0203243 0.0203252 0.020326 0.0203268 0.0203276 0.0203283 0.020329 0.0203296 0.0203302 0.0203308 0.0203314 0.020332 0.0203325 0.0203331 0.0203336 0.0203342 0.0203347 0.0203353 0.0203359 0.0203365 0.0203371 0.0203378 0.0203384 0.0203392 0.0203399 0.0203407 0.0203415 0.0203424 0.0203433 0.0203443 0.0203453 0.0203464 0.0203475 0.0203487 0.0203499 0.0203512 0.0203525 0.0203539 0.0203554 0.0203569 0.0203585 0.0203601 0.0203617 0.0203634 0.0203651 0.0203669 0.0203687 0.0203705 0.0203723 0.0203742 0.020376 0.0203778 0.0203797 0.0203815 0.0203833 0.020385 0.0203867 0.0203883 0.0203898 0.0203913 0.0203927 0.0203939 0.020395 0.020396 0.0203968 0.0203975 0.020398 0.0203982 0.0203983 0.0203981 0.0203976 0.0203969 0.0203959 0.0203946 0.020393 0.020391 0.0203886 0.0203859 0.0203828 0.0203793 0.0203754 0.0203711 0.0203663 0.0203611 0.0203554 0.0203493 0.0203427 0.0203356 0.0203281 0.0203201 0.0203117 0.0203029 0.0202937 0.020284 0.020274 0.0202636 0.0202529 0.0202418 0.0202305 0.020219 0.0202072 0.0201953 0.0201832 0.0201711 0.0201589 0.0201466 0.0201344 0.0201223 0.0201102 0.0200983 0.0200865 0.0200748 0.0200634 0.0200522 0.0200412 0.0200305 0.02002 0.0200097 0.0199997 0.0199899 0.0199804 0.0199711 0.0199621 0.0199534 0.0199449 0.0199367 0.0199289 0.0199215 0.0199145 0.019908 0.0199022 0.019897 0.0198927 0.0198892 0.0198867 0.0198853 0.0198851 0.0198861 0.0198881 0.0198908 0.0198927 0.019892 0.0198898 0.019888 0.0198868 0.0198856 0.0198835 0.0198789 0.0198698 0.0198534 0.0198257 0.0197805 0.0197088 0.019597 0.0194257 0.0191705 0.0188127 0.0183612 0.017807 0.0169904 0.0153866 0.0128656 0.00870357 -8.67362e-19 
0.0184079 0.0183843 0.0183535 0.0183229 0.0182939 0.0182671 0.0182423 0.0182194 0.0181984 0.0181791 0.0181616 0.0181457 0.0181315 0.018119 0.0181082 0.0180991 0.0180916 0.0180857 0.0180815 0.0180788 0.0180778 0.0180784 0.0180806 0.0180844 0.0180897 0.0180965 0.0181049 0.0181149 0.0181263 0.0181392 0.0181537 0.0181696 0.0181869 0.0182057 0.0182259 0.0182475 0.0182704 0.0182947 0.0183203 0.0183472 0.0183754 0.0184047 0.0184353 0.0184669 0.0184997 0.0185335 0.0185683 0.0186041 0.0186408 0.0186783 0.0187167 0.0187559 0.0187958 0.0188364 0.0188776 0.0189195 0.0189619 0.019005 0.0190485 0.0190925 0.019137 0.019182 0.0192273 0.0192731 0.0193192 0.0193657 0.0194124 0.0194595 0.0195068 0.0195544 0.019602 0.0196498 0.0196974 0.0197445 0.0197908 0.0198355 0.0198783 0.0199191 0.0199584 0.0199973 0.0200366 0.0200767 0.0201175 0.020159 0.0202009 0.0202432 0.0202858 0.0203284 0.020371 0.0204136 0.0204561 0.0204984 0.0205404 0.0205821 0.0206235 0.0206645 0.020705 0.020745 0.0207845 0.0208234 0.0208616 0.0208992 0.0209361 0.0209723 0.0210077 0.0210423 0.0210761 0.021109 0.0211411 0.0211722 0.0212024 0.0212316 0.0212598 0.0212871 0.0213133 0.0213385 0.0213626 0.0213856 0.0214076 0.0214285 0.0214482 0.0214668 0.0214844 0.0215007 0.021516 0.0215301 0.021543 0.0215548 0.0215654 0.0215749 0.0215832 0.0215904 0.0215964 0.0216012 0.021605 0.0216076 0.021609 0.0216094 0.0216087 0.0216068 0.0216039 0.0215999 0.0215948 0.0215888 0.0215816 0.0215735 0.0215644 0.0215544 0.0215434 0.0215314 0.0215186 0.0215049 0.0214904 0.021475 0.0214588 0.0214419 0.0214242 0.0214059 0.0213868 0.0213671 0.0213468 0.0213259 0.0213044 0.0212824 0.02126 0.0212371 0.0212137 0.02119 0.021166 0.0211416 0.0211169 0.0210921 0.021067 0.0210417 0.0210163 0.0209908 0.0209652 0.0209396 0.020914 0.0208885 0.020863 0.0208375 0.0208122 0.0207871 0.0207621 0.0207374 0.0207129 0.0206887 0.0206647 0.0206411 0.0206178 0.0205948 0.0205722 0.02055 0.0205283 0.0205069 0.020486 0.0204656 0.0204456 0.0204261 0.0204071 0.0203886 0.0203706 0.0203532 0.0203362 0.0203197 0.0203038 0.0202884 0.0202735 0.0202592 0.0202453 0.020232 0.0202191 0.0202068 0.020195 0.0201837 0.0201728 0.0201625 0.0201525 0.0201431 0.0201341 0.0201255 0.0201174 0.0201096 0.0201023 0.0200953 0.0200888 0.0200826 0.0200767 0.0200712 0.020066 0.0200611 0.0200565 0.0200522 0.0200481 0.0200444 0.0200408 0.0200375 0.0200345 0.0200316 0.020029 0.0200265 0.0200242 0.0200221 0.0200201 0.0200183 0.0200167 0.0200151 0.0200137 0.0200124 0.0200112 0.0200101 0.0200091 0.0200082 0.0200074 0.0200066 0.020006 0.0200053 0.0200048 0.0200042 0.0200038 0.0200034 0.020003 0.0200026 0.0200023 0.020002 0.0200018 0.0200016 0.0200014 0.0200012 0.020001 0.0200009 0.0200007 0.0200006 0.0200005 0.0200004 0.0200003 0.0200003 0.0200002 0.0200001 0.0200001 0.02 0.02 0.02 0.0199999 0.0199999 0.0199999 0.0199999 0.0199998 0.0199998 0.0199998 0.0199998 0.0199998 0.0199998 0.0199998 0.0199998 0.0199998 0.0199998 0.0199999 0.0199999 0.0199999 0.0199999 0.02 0.02 0.0200001 0.0200001 0.0200002 0.0200003 0.0200004 0.0200005 0.0200006 0.0200007 0.0200008 0.0200009 0.0200011 0.0200012 0.0200014 0.0200016 0.0200018 0.020002 0.0200023 0.0200025 0.0200028 0.0200031 0.0200034 0.0200038 0.0200042 0.0200045 0.020005 0.0200054 0.0200059 0.0200064 0.020007 0.0200075 0.0200081 0.0200088 0.0200095 0.0200102 0.0200109 0.0200117 0.0200126 0.0200135 0.0200144 0.0200154 0.0200164 0.0200175 0.0200186 0.0200197 0.020021 0.0200222 0.0200236 0.0200249 0.0200264 0.0200279 0.0200294 0.020031 0.0200327 0.0200344 0.0200362 0.020038 0.0200399 0.0200419 0.020044 0.0200461 0.0200482 0.0200505 0.0200528 0.0200551 0.0200575 0.02006 0.0200626 0.0200652 0.0200679 0.0200706 0.0200734 0.0200763 0.0200792 0.0200822 0.0200852 0.0200883 0.0200915 0.0200947 0.020098 0.0201013 0.0201047 0.0201081 0.0201116 0.0201151 0.0201187 0.0201223 0.0201259 0.0201296 0.0201333 0.0201371 0.0201408 0.0201446 0.0201485 0.0201523 0.0201562 0.0201601 0.020164 0.0201679 0.0201718 0.0201757 0.0201796 0.0201836 0.0201875 0.0201914 0.0201953 0.0201991 0.020203 0.0202069 0.0202107 0.0202144 0.0202182 0.0202219 0.0202256 0.0202292 0.0202328 0.0202364 0.0202399 0.0202433 0.0202467 0.0202501 0.0202533 0.0202566 0.0202597 0.0202628 0.0202658 0.0202687 0.0202716 0.0202744 0.0202772 0.0202798 0.0202824 0.0202849 0.0202873 0.0202897 0.020292 0.0202942 0.0202964 0.0202984 0.0203004 0.0203023 0.0203041 0.0203059 0.0203076 0.0203092 0.0203107 0.0203122 0.0203136 0.0203149 0.0203162 0.0203174 0.0203186 0.0203197 0.0203207 0.0203217 0.0203226 0.0203235 0.0203244 0.0203252 0.020326 0.0203267 0.0203274 0.0203281 0.0203288 0.0203294 0.0203301 0.0203307 0.0203314 0.020332 0.0203326 0.0203332 0.0203339 0.0203346 0.0203352 0.0203359 0.0203367 0.0203374 0.0203382 0.020339 0.0203399 0.0203408 0.0203417 0.0203427 0.0203437 0.0203448 0.0203459 0.0203471 0.0203483 0.0203496 0.0203509 0.0203523 0.0203537 0.0203552 0.0203567 0.0203583 0.0203599 0.0203615 0.0203632 0.0203649 0.0203667 0.0203685 0.0203702 0.020372 0.0203738 0.0203756 0.0203774 0.0203792 0.020381 0.0203827 0.0203843 0.020386 0.0203875 0.020389 0.0203903 0.0203916 0.0203928 0.0203938 0.0203947 0.0203954 0.020396 0.0203963 0.0203965 0.0203964 0.0203961 0.0203956 0.0203947 0.0203936 0.0203922 0.0203905 0.0203884 0.0203859 0.0203831 0.0203799 0.0203763 0.0203723 0.0203679 0.020363 0.0203577 0.020352 0.0203458 0.0203392 0.0203321 0.0203245 0.0203165 0.0203081 0.0202992 0.02029 0.0202803 0.0202703 0.0202599 0.0202492 0.0202382 0.0202269 0.0202154 0.0202037 0.0201918 0.0201798 0.0201678 0.0201556 0.0201435 0.0201314 0.0201193 0.0201073 0.0200955 0.0200838 0.0200723 0.020061 0.0200499 0.0200391 0.0200285 0.0200181 0.020008 0.0199982 0.0199886 0.0199793 0.0199702 0.0199613 0.0199527 0.0199444 0.0199364 0.0199287 0.0199214 0.0199145 0.0199081 0.0199023 0.0198971 0.0198926 0.019889 0.0198863 0.0198846 0.0198839 0.0198843 0.0198857 0.0198877 0.0198895 0.0198897 0.0198878 0.0198851 0.0198821 0.0198786 0.0198738 0.0198665 0.0198546 0.0198356 0.0198052 0.0197576 0.0196837 0.0195706 0.0194007 0.0191552 0.0188226 0.0183931 0.0178035 0.016866 0.0152482 0.0125351 0.00788988 6.50521e-19 