# vtk DataFile Version 2.0
iteration 756
ASCII

DATASET STRUCTURED_POINTS
DIMENSIONS 621 64 1
ORIGIN 0 0 0
SPACING 0.00161031 0.00161031 0.00161031

POINT_DATA 39744
SCALARS P float 1
LOOKUP_TABLE default
0 0 0 0 0 0 0 0 0 0 0 0 0 0 0 0 0 0 0 0 0 0 0 0 0 0 0 0 0 0 0 0 0 0 0 0 0 0 0 0 0 0 0 0 0 0 0 0 0 0 0 0 0 0 0 0 0 0 0 0 0 0 0 0 0 0 0 0 0 0 0 0 0 0 0 0 0 0 0 0 0 0 0 0 0 0 0 0 0 0 0 0 0 0 0 0 0 0 0 0 0 0 0 0 0 0 0 0 0 0 0 0 0 0 0 0 0 0 0 0 0 0 0 0 0 0 0 0 0 0 0 0 0 0 0 0 0 0 0 0 0 0 0 0 0 0 0 0 0 0 0 0 0 0 0 0 0 0 0 0 0 0 0 0 0 0 0 0 0 0 0 0 0 0 0 0 0 0 0 0 0 0 0 0 0 0 0 0 0 0 0 0 0 0 0 0 0 0 0 0 0 0 0 0 0 0 0 0 0 0 0 0 0 0 0 0 0 0 0 0 0 0 0 0 0 0 0 0 0 0 0 0 0 0 0 0 0 0 0 0 0 0 0 0 0 0 0 0 0 0 0 0 0 0 0 0 0 0 0 0 0 0 0 0 0 0 0 0 0 0 0 0 0 0 0 0 0 0 0 0 0 0 0 0 0 0 0 0 0 0 0 0 0 0 0 0 0 0 0 0 0 0 0 0 0 0 0 0 0 0 0 0 0 0 0 0 0 0 0 0 0 0 0 0 0 0 0 0 0 0 0 0 0 0 0 0 0 0 0 0 0 0 0 0 0 0 0 0 0 0 0 0 0 0 0 0 0 0 0 0 0 0 0 0 0 0 0 0 0 0 0 0 0 0 0 0 0 0 0 0 0 0 0 0 0 0 0 0 0 0 0 0 0 0 0 0 0 0 0 0 0 0 0 0 0 0 0 0 0 0 0 0 0 0 0 0 0 0 0 0 0 0 0 0 0 0 0 0 0 0 0 0 0 0 0 0 0 0 0 0 0 0 0 0 0 0 0 0 0 0 0 0 0 0 0 0 0 0 0 0 0 0 0 0 0 0 0 0 0 0 0 0 0 0 0 0 0 0 0 0 0 0 0 0 0 0 0 0 0 0 0 0 0 0 0 0 0 0 0 0 0 0 0 0 0 0 0 0 0 0 0 0 0 0 0 0 0 0 0 0 0 0 0 0 0 0 0 0 0 0 0 0 0 0 0 0 0 0 0 0 0 0 0 0 0 0 0 0 0 0 0 0 0 0 0 0 0 0 0 0 0 0 0 0 0 0 0 0 0 0 0 0 0 0 0 0 0 0 0 0 0 0 0 0 0 0 0 0 0 0 0 0 0 0 0 0 0 0 0 0 0 0 0 0 0 0 0 0 0 0 0 0 0 0 0 0 0 0 0 0 0 
0.02 0.02 0.02 0.02 0.02 0.02 0.02 0.02 0.02 0.02 0.02 0.02 0.02 0.02 0.02 0.02 0.02 0.02 0.02 0.02 0.02 0.02 0.02 0.02 0.02 0.0200001 0.0200001 0.0200001 0.0200001 0.0200001 0.0200001 0.0200001 0.0200002 0.0200002 0.0200002 0.0200003 0.0200003 0.0200004 0.0200004 0.0200005 0.0200005 0.0200006 0.0200007 0.0200008 0.0200009 0.020001 0.0200012 0.0200013 0.0200015 0.0200016 0.0200018 0.020002 0.0200023 0.0200025 0.0200028 0.020003 0.0200033 0.0200037 0.020004 0.0200044 0.0200048 0.0200053 0.0200058 0.0200064 0.0200071 0.0200078 0.0200087 0.0200096 0.0200107 0.020012 0.0200134 0.0200151 0.020017 0.0200193 0.0200219 0.0200248 0.0200282 0.0200322 0.0200367 0.0200419 0.0200478 0.0200545 0.0200621 0.0200708 0.0200806 0.0200916 0.020104 0.020118 0.0201336 0.0201509 0.0201702 0.0201916 0.0202153 0.0202414 0.02027 0.0203014 0.0203356 0.0203729 0.0204134 0.0204571 0.0205042 0.0205548 0.0206087 0.0206661 0.0207255 0.020788 0.0208524 0.0209189 0.0209873 0.0210572 0.0211283 0.0211996 0.0212698 0.0213378 0.0214022 0.0214619 0.0215156 0.0215624 0.0216013 0.0216316 0.0216527 0.0216643 0.0216662 0.0216586 0.0216418 0.0216162 0.0215824 0.0215413 0.0214935 0.0214399 0.0213813 0.0213185 0.021252 0.0211823 0.0211089 0.0210309 0.020946 0.0208508 0.0207403 0.0206096 0.0204519 0.020269 0.0200724 0.0198459 0.0197278 0.0199249 0.0211742 0.0238742 0 0 0 0 0 0 0 0 0 0 0 0 0 0 0 0 0 0 0 0 0 0 0 0 0 0 0 0 0 0 0 0 0 0 0 0 0 0 0 0 0 0 0 0 0 0 0 0 0 0 0 0 0 0 0 0 0 0 0 0 0 0 0 0 0 0 0 0 0 0 0 0 0 0 0 0 0 0 0 0 0 0 0 0 0 0 0 0 0 0 0 0 0 0 0 0 0 0 0 0 0 0 0 0 0 0 0 0 0 0 0 0 0 0 0 0 0 0 0 0 0 0 0 0 0 0 0 0 0 0 0 0 0 0 0 0 0 0 0 0 0 0 0 0 0 0 0 0 0 0 0 0 0 0 0 0 0 0 0 0 0 0 0 0 0 0 0 0 0 0 0 0 0 0 0 0 0 0 0 0 0 0 0 0 0 0 0 0 0 0 0 0 0 0 0 0 0 0 0 0 0 0 0 0 0 0 0 0 0 0 0 0 0 0 0 0 0 0 0 0 0 0 0 0 0 0 0 0 0 0 0 0 0 0 0 0 0 0 0 0 0 0 0 0 0 0 0 0 0 0 0 0 0 0 0 0 0 0 0 0 0 0 0 0 0 0 0 0 0 0 0 0 0 0 0 0 0 0 0 0 0 0 0 0 0 0 0 0 0 0 0 0 0 0 0 0 0 0 0 0 0 0 0 0 0 0 0 0 0 0 0 0 0 0 0 0 0 0 0 0 0 0 0 0 0 0 0 0 0 0 0 0 0 0 0 0 0 0 0 0 0 0 0 0 0 0 0 0 0 0 0 0 0 0 0 0 0 0 0 0 0 0 0 0 0 0 0 0 0 0 0 0 0 0 0 0 0 0 0 0 0 0 0 0 0 0 0 0 0 0 0 0 0 0 0 0 0 0 0 0 0 0 0 0 0 0 0 0 0 0 0 0 0 0 0 0 0 0 0 0 0 0 0 0 0 0 0 0 0 0 0 0 0 0 0 0 0 0 0 0 0 0 0 0 0 0 0 0 0 0 0 0 0 0 0 0 0 0 0 0 0 0 0 0 0 0 0 0 0 0 0 0 0 
0.02 0.02 0.02 0.02 0.02 0.02 0.02 0.02 0.02 0.02 0.02 0.02 0.02 0.02 0.02 0.02 0.02 0.02 0.02 0.02 0.02 0.02 0.02 0.02 0.02 0.0200001 0.0200001 0.0200001 0.0200001 0.0200001 0.0200001 0.0200001 0.0200002 0.0200002 0.0200002 0.0200003 0.0200003 0.0200003 0.0200004 0.0200005 0.0200005 0.0200006 0.0200007 0.0200008 0.0200009 0.020001 0.0200011 0.0200013 0.0200014 0.0200016 0.0200018 0.020002 0.0200022 0.0200024 0.0200027 0.0200029 0.0200032 0.0200036 0.0200039 0.0200043 0.0200047 0.0200052 0.0200057 0.0200062 0.0200069 0.0200076 0.0200084 0.0200094 0.0200104 0.0200117 0.0200131 0.0200147 0.0200166 0.0200188 0.0200214 0.0200243 0.0200276 0.0200315 0.0200359 0.020041 0.0200468 0.0200534 0.020061 0.0200695 0.0200791 0.02009 0.0201023 0.020116 0.0201314 0.0201486 0.0201676 0.0201888 0.0202122 0.020238 0.0202663 0.0202974 0.0203313 0.0203683 0.0204084 0.0204518 0.0204985 0.0205487 0.0206023 0.0206593 0.0207194 0.0207822 0.0208467 0.0209132 0.0209812 0.0210507 0.0211211 0.0211917 0.0212614 0.0213288 0.0213928 0.0214521 0.0215057 0.0215523 0.0215912 0.0216215 0.0216427 0.0216544 0.0216565 0.021649 0.0216322 0.0216066 0.0215728 0.0215315 0.0214834 0.0214294 0.0213703 0.0213069 0.0212396 0.021169 0.0210946 0.0210154 0.0209293 0.0208327 0.020721 0.0205899 0.0204345 0.0202574 0.020085 0.0199422 0.0197871 0.0199861 0.0196458 0.0206569 0.0200901 0.0193868 0.0189715 0.0185928 0.0181002 0.017342 0.0169891 0.0169108 0.0187028 0 0 0 0 0 0 0 0 0 0 0 0 0 0 0 0 0 0 0 0 0 0 0 0 0 0 0 0 0 0 0 0 0 0 0 0 0 0 0 0 0 0 0 0 0 0 0 0 0 0 0 0 0 0 0 0 0 0 0 0 0 0 0 0 0 0 0 0 0 0 0 0 0 0 0 0 0 0 0 0 0 0 0 0 0 0 0 0 0 0 0 0 0 0 0 0 0 0 0 0 0 0 0 0 0 0 0 0 0 0 0 0 0 0 0 0 0 0 0 0 0 0 0 0 0 0 0 0 0 0 0 0 0 0 0 0 0 0 0 0 0 0 0 0 0 0 0 0 0 0 0 0 0 0 0 0 0 0 0 0 0 0 0 0 0 0 0 0 0 0 0 0 0 0 0 0 0 0 0 0 0 0 0 0 0 0 0 0 0 0 0 0 0 0 0 0 0 0 0 0 0 0 0 0 0 0 0 0 0 0 0 0 0 0 0 0 0 0 0 0 0 0 0 0 0 0 0 0 0 0 0 0 0 0 0 0 0 0 0 0 0 0 0 0 0 0 0 0 0 0 0 0 0 0 0 0 0 0 0 0 0 0 0 0 0 0 0 0 0 0 0 0 0 0 0 0 0 0 0 0 0 0 0 0 0 0 0 0 0 0 0 0 0 0 0 0 0 0 0 0 0 0 0 0 0 0 0 0 0 0 0 0 0 0 0 0 0 0 0 0 0 0 0 0 0 0 0 0 0 0 0 0 0 0 0 0 0 0 0 0 0 0 0 0 0 0 0 0 0 0 0 0 0 0 0 0 0 0 0 0 0 0 0 0 0 0 0 0 0 0 0 0 0 0 0 0 0 0 0 0 0 0 0 0 0 0 0 0 0 0 0 0 0 0 0 0 0 0 0 0 0 0 0 0 0 0 0 0 0 0 0 0 0 0 0 0 0 0 0 0 0 0 0 0 0 0 0 0 0 0 0 0 0 0 0 0 0 0 0 0 0 0 0 0 0 0 0 0 0 0 0 0 0 0 0 0 0 0 0 0 0 0 0 0 
0.02 0.02 0.02 0.02 0.02 0.02 0.02 0.02 0.02 0.02 0.02 0.02 0.02 0.02 0.02 0.02 0.02 0.02 0.02 0.02 0.02 0.02 0.02 0.02 0.02 0.02 0.0200001 0.0200001 0.0200001 0.0200001 0.0200001 0.0200001 0.0200001 0.0200002 0.0200002 0.0200002 0.0200003 0.0200003 0.0200004 0.0200004 0.0200005 0.0200005 0.0200006 0.0200007 0.0200008 0.0200009 0.020001 0.0200012 0.0200013 0.0200015 0.0200016 0.0200018 0.020002 0.0200022 0.0200025 0.0200027 0.020003 0.0200033 0.0200036 0.020004 0.0200044 0.0200048 0.0200053 0.0200058 0.0200064 0.0200071 0.0200079 0.0200088 0.0200098 0.020011 0.0200124 0.0200139 0.0200158 0.0200179 0.0200204 0.0200232 0.0200265 0.0200302 0.0200346 0.0200396 0.0200453 0.0200518 0.0200592 0.0200676 0.0200771 0.0200878 0.0200999 0.0201135 0.0201287 0.0201457 0.0201646 0.0201855 0.0202087 0.0202342 0.0202623 0.0202931 0.0203268 0.0203634 0.0204032 0.0204463 0.0204927 0.0205425 0.0205957 0.0206523 0.0207122 0.0207751 0.0208402 0.0209067 0.0209746 0.0210435 0.021113 0.0211826 0.0212512 0.0213177 0.0213809 0.0214395 0.0214924 0.0215384 0.0215768 0.0216067 0.0216274 0.0216387 0.0216404 0.0216326 0.0216155 0.0215895 0.0215553 0.0215135 0.0214649 0.0214103 0.0213504 0.0212862 0.021218 0.0211463 0.0210708 0.0209904 0.0209031 0.0208054 0.020693 0.0205634 0.0204161 0.0202566 0.0201254 0.0200255 0.0199865 0.0200735 0.0202141 0.0201419 0.0196642 0.0192789 0.0188346 0.0184059 0.0178754 0.0172634 0.016894 0.0160787 0.016212 0.0149511 0.0125924 0.00964529 0.00690872 0 0 0 0 0 0 0 0 0 0 0 0 0 0 0 0 0 0 0 0 0 0 0 0 0 0 0 0 0 0 0 0 0 0 0 0 0 0 0 0 0 0 0 0 0 0 0 0 0 0 0 0 0 0 0 0 0 0 0 0 0 0 0 0 0 0 0 0 0 0 0 0 0 0 0 0 0 0 0 0 0 0 0 0 0 0 0 0 0 0 0 0 0 0 0 0 0 0 0 0 0 0 0 0 0 0 0 0 0 0 0 0 0 0 0 0 0 0 0 0 0 0 0 0 0 0 0 0 0 0 0 0 0 0 0 0 0 0 0 0 0 0 0 0 0 0 0 0 0 0 0 0 0 0 0 0 0 0 0 0 0 0 0 0 0 0 0 0 0 0 0 0 0 0 0 0 0 0 0 0 0 0 0 0 0 0 0 0 0 0 0 0 0 0 0 0 0 0 0 0 0 0 0 0 0 0 0 0 0 0 0 0 0 0 0 0 0 0 0 0 0 0 0 0 0 0 0 0 0 0 0 0 0 0 0 0 0 0 0 0 0 0 0 0 0 0 0 0 0 0 0 0 0 0 0 0 0 0 0 0 0 0 0 0 0 0 0 0 0 0 0 0 0 0 0 0 0 0 0 0 0 0 0 0 0 0 0 0 0 0 0 0 0 0 0 0 0 0 0 0 0 0 0 0 0 0 0 0 0 0 0 0 0 0 0 0 0 0 0 0 0 0 0 0 0 0 0 0 0 0 0 0 0 0 0 0 0 0 0 0 0 0 0 0 0 0 0 0 0 0 0 0 0 0 0 0 0 0 0 0 0 0 0 0 0 0 0 0 0 0 0 0 0 0 0 0 0 0 0 0 0 0 0 0 0 0 0 0 0 0 0 0 0 0 0 0 0 0 0 0 0 0 0 0 0 0 0 0 0 0 0 0 0 0 0 0 0 0 0 0 0 0 0 0 0 0 0 0 0 0 0 0 0 0 0 0 0 0 0 0 0 0 0 0 0 0 0 0 0 0 0 0 0 0 0 0 0 0 0 0 
0.02 0.02 0.02 0.02 0.02 0.02 0.02 0.02 0.02 0.02 0.02 0.02 0.02 0.02 0.02 0.02 0.02 0.02 0.02 0.02 0.02 0.02 0.02 0.02 0.02 0.02 0.02 0.0200001 0.0200001 0.0200001 0.0200001 0.0200001 0.0200001 0.0200001 0.0200002 0.0200002 0.0200002 0.0200003 0.0200003 0.0200004 0.0200004 0.0200005 0.0200006 0.0200006 0.0200007 0.0200008 0.0200009 0.0200011 0.0200012 0.0200013 0.0200015 0.0200017 0.0200018 0.020002 0.0200023 0.0200025 0.0200027 0.020003 0.0200033 0.0200036 0.020004 0.0200044 0.0200048 0.0200053 0.0200059 0.0200065 0.0200073 0.0200081 0.0200091 0.0200102 0.0200115 0.020013 0.0200148 0.0200169 0.0200192 0.020022 0.0200252 0.0200289 0.0200331 0.020038 0.0200435 0.0200499 0.0200572 0.0200654 0.0200748 0.0200853 0.0200973 0.0201106 0.0201256 0.0201423 0.0201609 0.0201816 0.0202045 0.0202297 0.0202575 0.0202879 0.0203211 0.0203574 0.0203967 0.0204393 0.0204852 0.0205345 0.0205871 0.0206432 0.0207024 0.0207647 0.0208296 0.0208962 0.0209638 0.0210322 0.0211008 0.0211691 0.0212364 0.0213015 0.0213634 0.0214207 0.0214725 0.0215175 0.0215549 0.0215838 0.0216038 0.0216143 0.0216153 0.0216067 0.0215889 0.0215622 0.0215273 0.0214847 0.0214353 0.0213798 0.021319 0.0212536 0.0211843 0.0211114 0.0210345 0.0209527 0.0208641 0.0207657 0.020654 0.020529 0.0203955 0.0202643 0.0201624 0.0201243 0.0201096 0.0200033 0.0200531 0.0198593 0.0195045 0.019151 0.0187207 0.0182873 0.0177753 0.0172692 0.0169131 0.0165665 0.0157641 0.0144902 0.0124409 0.00954345 0.00723516 0 0 0 0 0 0 0 -0.0165505 -0.0224569 0 0 0 0 0 0 0 0 0 0 0 0 0 0 0 0 0 0 0 0 0 0 0 0 0 0 0 0 0 0 0 0 0 0 0 0 0 0 0 0 0 0 0 0 0 0 0 0 0 0 0 0 0 0 0 0 0 0 0 0 0 0 0 0 0 0 0 0 0 0 0 0 0 0 0 0 0 0 0 0 0 0 0 0 0 0 0 0 0 0 0 0 0 0 0 0 0 0 0 0 0 0 0 0 0 0 0 0 0 0 0 0 0 0 0 0 0 0 0 0 0 0 0 0 0 0 0 0 0 0 0 0 0 0 0 0 0 0 0 0 0 0 0 0 0 0 0 0 0 0 0 0 0 0 0 0 0 0 0 0 0 0 0 0 0 0 0 0 0 0 0 0 0 0 0 0 0 0 0 0 0 0 0 0 0 0 0 0 0 0 0 0 0 0 0 0 0 0 0 0 0 0 0 0 0 0 0 0 0 0 0 0 0 0 0 0 0 0 0 0 0 0 0 0 0 0 0 0 0 0 0 0 0 0 0 0 0 0 0 0 0 0 0 0 0 0 0 0 0 0 0 0 0 0 0 0 0 0 0 0 0 0 0 0 0 0 0 0 0 0 0 0 0 0 0 0 0 0 0 0 0 0 0 0 0 0 0 0 0 0 0 0 0 0 0 0 0 0 0 0 0 0 0 0 0 0 0 0 0 0 0 0 0 0 0 0 0 0 0 0 0 0 0 0 0 0 0 0 0 0 0 0 0 0 0 0 0 0 0 0 0 0 0 0 0 0 0 0 0 0 0 0 0 0 0 0 0 0 0 0 0 0 0 0 0 0 0 0 0 0 0 0 0 0 0 0 0 0 0 0 0 0 0 0 0 0 0 0 0 0 0 0 0 0 0 0 0 0 0 0 0 0 0 0 0 0 0 0 0 0 0 0 0 0 0 0 0 0 0 0 0 0 0 0 0 0 0 0 0 0 0 0 0 0 0 0 0 0 0 0 0 0 0 0 0 0 0 0 0 -0.00403081 2.1684e-19 
0.02 0.02 0.02 0.02 0.02 0.02 0.02 0.02 0.02 0.02 0.02 0.02 0.02 0.02 0.02 0.02 0.02 0.02 0.02 0.02 0.02 0.02 0.02 0.02 0.02 0.02 0.02 0.02 0.0200001 0.0200001 0.0200001 0.0200001 0.0200001 0.0200001 0.0200001 0.0200002 0.0200002 0.0200002 0.0200003 0.0200003 0.0200004 0.0200004 0.0200005 0.0200006 0.0200006 0.0200007 0.0200008 0.0200009 0.0200011 0.0200012 0.0200013 0.0200015 0.0200017 0.0200018 0.020002 0.0200022 0.0200025 0.0200027 0.020003 0.0200033 0.0200036 0.020004 0.0200044 0.0200049 0.0200054 0.020006 0.0200067 0.0200075 0.0200084 0.0200095 0.0200107 0.0200122 0.0200138 0.0200158 0.0200181 0.0200208 0.0200239 0.0200274 0.0200316 0.0200363 0.0200417 0.020048 0.0200551 0.0200632 0.0200723 0.0200827 0.0200944 0.0201075 0.0201222 0.0201386 0.0201569 0.0201772 0.0201997 0.0202245 0.0202518 0.0202817 0.0203144 0.0203501 0.0203888 0.0204307 0.0204758 0.0205243 0.0205762 0.0206313 0.0206897 0.0207511 0.020815 0.020881 0.0209481 0.0210157 0.0210833 0.0211503 0.021216 0.0212794 0.0213396 0.0213953 0.0214454 0.021489 0.0215249 0.0215526 0.0215713 0.0215807 0.0215805 0.0215709 0.0215521 0.0215245 0.0214885 0.021445 0.0213945 0.0213379 0.021276 0.0212094 0.0211387 0.0210644 0.020986 0.0209026 0.0208127 0.0207142 0.0206055 0.0204886 0.0203723 0.0202676 0.0201873 0.0201515 0.0201375 0.0200939 0.0199278 0.0196762 0.0193619 0.0190133 0.0186025 0.0181784 0.0177285 0.0172654 0.0168703 0.0163601 0.0156042 0.0144143 0.0125873 0.00968097 0.00377179 0 0 0 0 0 0 -0.0125989 -0.0152565 -0.0210179 -0.0251163 -0.0280042 -0.0307573 -0.0333394 -0.039066 0 0 0 0 0 0 0 0 0 0 0 0 0 0 0 0 0 0 0 0 0 0 0 0 0 0 0 0 0 0 0 0 0 0 0 0 0 0 0 0 0 0 0 0 0 0 0 0 0 0 0 0 0 0 0 0 0 0 0 0 0 0 0 0 0 0 0 0 0 0 0 0 0 0 0 0 0 0 0 0 0 0 0 0 0 0 0 0 0 0 0 0 0 0 0 0 0 0 0 0 0 0 0 0 0 0 0 0 0 0 0 0 0 0 0 0 0 0 0 0 0 0 0 0 0 0 0 0 0 0 0 0 0 0 0 0 0 0 0 0 0 0 0 0 0 0 0 0 0 0 0 0 0 0 0 0 0 0 0 0 0 0 0 0 0 0 0 0 0 0 0 0 0 0 0 0 0 0 0 0 0 0 0 0 0 0 0 0 0 0 0 0 0 0 0 0 0 0 0 0 0 0 0 0 0 0 0 0 0 0 0 0 0 0 0 0 0 0 0 0 0 0 0 0 0 0 0 0 0 0 0 0 0 0 0 0 0 0 0 0 0 0 0 0 0 0 0 0 0 0 0 0 0 0 0 0 0 0 0 0 0 0 0 0 0 0 0 0 0 0 0 0 0 0 0 0 0 0 0 0 0 0 0 0 0 0 0 0 0 0 0 0 0 0 0 0 0 0 0 0 0 0 0 0 0 0 0 0 0 0 0 0 0 0 0 0 0 0 0 0 0 0 0 0 0 0 0 0 0 0 0 0 0 0 0 0 0 0 0 0 0 0 0 0 0 0 0 0 0 0 0 0 0 0 0 0 0 0 0 0 0 0 0 0 0 0 0 0 0 0 0 0 0 0 0 0 0 0 0 0 0 0 0 0 0 0 0 0 0 0 0 0 0 0 0 0 0 0 0 0 0 0 0 0 0 0 0 0 0 0 0 0 0 0 0 0 0 0 0 0 0 0 0 0 0 0 0 0 0 0 0 0 0 0 0 0 0 0 0 0 0 0 0 -0.0130148 -0.00678348 -1.30104e-18 
0.02 0.02 0.02 0.02 0.02 0.02 0.02 0.02 0.02 0.02 0.02 0.02 0.02 0.02 0.02 0.02 0.02 0.02 0.02 0.02 0.02 0.02 0.02 0.02 0.02 0.02 0.02 0.02 0.02 0.0200001 0.0200001 0.0200001 0.0200001 0.0200001 0.0200001 0.0200001 0.0200002 0.0200002 0.0200002 0.0200003 0.0200003 0.0200004 0.0200004 0.0200005 0.0200006 0.0200006 0.0200007 0.0200008 0.0200009 0.0200011 0.0200012 0.0200013 0.0200015 0.0200016 0.0200018 0.020002 0.0200022 0.0200024 0.0200027 0.020003 0.0200033 0.0200036 0.020004 0.0200044 0.0200049 0.0200055 0.0200061 0.0200068 0.0200077 0.0200087 0.0200099 0.0200113 0.0200129 0.0200148 0.0200171 0.0200196 0.0200226 0.0200261 0.0200301 0.0200347 0.02004 0.0200461 0.020053 0.0200609 0.0200698 0.0200799 0.0200913 0.0201042 0.0201185 0.0201346 0.0201525 0.0201723 0.0201943 0.0202186 0.0202453 0.0202746 0.0203066 0.0203415 0.0203794 0.0204204 0.0204646 0.0205121 0.0205628 0.0206169 0.020674 0.0207341 0.0207968 0.0208615 0.0209275 0.020994 0.0210603 0.0211258 0.0211898 0.0212513 0.0213095 0.0213632 0.0214114 0.0214531 0.0214873 0.0215132 0.0215304 0.0215383 0.0215368 0.0215259 0.0215058 0.021477 0.0214399 0.0213952 0.0213435 0.0212857 0.0212224 0.0211544 0.0210823 0.0210064 0.0209264 0.0208416 0.0207507 0.0206531 0.0205495 0.020443 0.0203426 0.0202585 0.0201912 0.02013 0.0200755 0.019962 0.0197811 0.0195338 0.0192278 0.0188754 0.0184793 0.0180698 0.0176597 0.017235 0.0167524 0.0162139 0.0154483 0.0143369 0.0127811 0.010266 0.00651797 0 0 0 0 0 -0.0143636 -0.0136846 -0.0165853 -0.020972 -0.024568 -0.0274468 -0.0301092 -0.0313656 -0.0355467 -0.0374029 -0.0388257 -0.0432078 -0.0426457 0 0 0 0 0 0 0 0 0 0 0 0 0 0 0 0 0 0 0 0 0 0 0 0 0 0 0 0 0 0 0 0 0 0 0 0 0 0 0 0 0 0 0 0 0 0 0 0 0 0 0 0 0 0 0 0 0 0 0 0 0 0 0 0 0 0 0 0 0 0 0 0 0 0 0 0 0 0 0 0 0 0 0 0 0 0 0 0 0 0 0 0 0 0 0 0 0 0 0 0 0 0 0 0 0 0 0 0 0 0 0 0 0 0 0 0 0 0 0 0 0 0 0 0 0 0 0 0 0 0 0 0 0 0 0 0 0 0 0 0 0 0 0 0 0 0 0 0 0 0 0 0 0 0 0 0 0 0 0 0 0 0 0 0 0 0 0 0 0 0 0 0 0 0 0 0 0 0 0 0 0 0 0 0 0 0 0 0 0 0 0 0 0 0 0 0 0 0 0 0 0 0 0 0 0 0 0 0 0 0 0 0 0 0 0 0 0 0 0 0 0 0 0 0 0 0 0 0 0 0 0 0 0 0 0 0 0 0 0 0 0 0 0 0 0 0 0 0 0 0 0 0 0 0 0 0 0 0 0 0 0 0 0 0 0 0 0 0 0 0 0 0 0 0 0 0 0 0 0 0 0 0 0 0 0 0 0 0 0 0 0 0 0 0 0 0 0 0 0 0 0 0 0 0 0 0 0 0 0 0 0 0 0 0 0 0 0 0 0 0 0 0 0 0 0 0 0 0 0 0 0 0 0 0 0 0 0 0 0 0 0 0 0 0 0 0 0 0 0 0 0 0 0 0 0 0 0 0 0 0 0 0 0 0 0 0 0 0 0 0 0 0 0 0 0 0 0 0 0 0 0 0 0 0 0 0 0 0 0 0 0 0 0 0 0 0 0 0 0 0 0 0 0 0 0 0 0 0 0 0 0 0 0 0 0 0 0 0 0 0 0 0 0 0 0 0 0 0 0 0 0 0 0 0 0 0 0 -0.0282159 -0.0236901 -0.0169177 -0.0092097 -1.95156e-18 
0.02 0.02 0.02 0.02 0.02 0.02 0.02 0.02 0.02 0.02 0.02 0.02 0.02 0.02 0.02 0.02 0.02 0.02 0.02 0.02 0.02 0.02 0.02 0.02 0.02 0.02 0.02 0.02 0.02 0.02 0.02 0.0200001 0.0200001 0.0200001 0.0200001 0.0200001 0.0200001 0.0200002 0.0200002 0.0200002 0.0200003 0.0200003 0.0200004 0.0200004 0.0200005 0.0200006 0.0200006 0.0200007 0.0200008 0.0200009 0.020001 0.0200012 0.0200013 0.0200015 0.0200016 0.0200018 0.020002 0.0200022 0.0200024 0.0200027 0.0200029 0.0200032 0.0200036 0.020004 0.0200045 0.020005 0.0200056 0.0200063 0.0200071 0.0200081 0.0200092 0.0200106 0.0200121 0.020014 0.0200161 0.0200186 0.0200215 0.0200248 0.0200287 0.0200332 0.0200383 0.0200442 0.0200509 0.0200586 0.0200673 0.0200771 0.0200882 0.0201007 0.0201147 0.0201304 0.0201478 0.0201671 0.0201885 0.0202121 0.0202381 0.0202667 0.0202978 0.0203318 0.0203687 0.0204086 0.0204516 0.0204979 0.0205473 0.0205999 0.0206555 0.020714 0.020775 0.0208381 0.0209025 0.0209675 0.0210322 0.021096 0.021158 0.0212175 0.0212734 0.0213249 0.0213709 0.0214104 0.0214425 0.0214665 0.0214818 0.021488 0.0214849 0.0214725 0.0214511 0.0214209 0.0213825 0.0213365 0.0212836 0.0212245 0.0211598 0.0210904 0.0210167 0.0209391 0.0208577 0.0207718 0.0206808 0.0205851 0.0204874 0.0203919 0.020304 0.0202295 0.0201641 0.0200915 0.0199851 0.0198426 0.0196442 0.0193904 0.0190858 0.0187371 0.0183524 0.0179511 0.0175494 0.0171349 0.0166599 0.0160537 0.0152704 0.0141973 0.0126748 0.0104952 0.00944475 0 0 0 0 -0.00734966 -0.012987 -0.0145588 -0.0176775 -0.0210896 -0.0242761 -0.0270933 -0.0298125 -0.0324406 -0.0346008 -0.0363226 -0.0380959 -0.0404387 -0.0424019 -0.0436004 -0.0449363 -0.050884 0 0 0 0 0 0 0 0 0 0 0 0 0 0 0 0 0 0 0 0 0 0 0 0 0 0 0 0 0 0 0 0 0 0 0 0 0 0 0 0 0 0 0 0 0 0 0 0 0 0 0 0 0 0 0 0 0 0 0 0 0 0 0 0 0 0 0 0 0 0 0 0 0 0 0 0 0 0 0 0 0 0 0 0 0 0 0 0 0 0 0 0 0 0 0 0 0 0 0 0 0 0 0 0 0 0 0 0 0 0 0 0 0 0 0 0 0 0 0 0 0 0 0 0 0 0 0 0 0 0 0 0 0 0 0 0 0 0 0 0 0 0 0 0 0 0 0 0 0 0 0 0 0 0 0 0 0 0 0 0 0 0 0 0 0 0 0 0 0 0 0 0 0 0 0 0 0 0 0 0 0 0 0 0 0 0 0 0 0 0 0 0 0 0 0 0 0 0 0 0 0 0 0 0 0 0 0 0 0 0 0 0 0 0 0 0 0 0 0 0 0 0 0 0 0 0 0 0 0 0 0 0 0 0 0 0 0 0 0 0 0 0 0 0 0 0 0 0 0 0 0 0 0 0 0 0 0 0 0 0 0 0 0 0 0 0 0 0 0 0 0 0 0 0 0 0 0 0 0 0 0 0 0 0 0 0 0 0 0 0 0 0 0 0 0 0 0 0 0 0 0 0 0 0 0 0 0 0 0 0 0 0 0 0 0 0 0 0 0 0 0 0 0 0 0 0 0 0 0 0 0 0 0 0 0 0 0 0 0 0 0 0 0 0 0 0 0 0 0 0 0 0 0 0 0 0 0 0 0 0 0 0 0 0 0 0 0 0 0 0 0 0 0 0 0 0 0 0 0 0 0 0 0 0 0 0 0 0 0 0 -0.0409419 -0.0429446 -0.0436802 -0.0440402 -0.0442688 -0.044424 -0.0445297 -0.0445943 -0.044623 -0.0446184 -0.0445828 -0.044518 -0.0444264 -0.0443107 -0.0441744 -0.0440215 -0.0438568 -0.0436855 -0.043513 -0.0433449 -0.0431864 -0.0430416 -0.0429137 -0.0428042 -0.0427129 -0.0426378 -0.0425755 -0.0425221 -0.0424731 -0.0424247 -0.042374 -0.0423185 -0.0422567 -0.0421869 -0.0421066 -0.0420117 -0.0418945 -0.0417387 -0.0415032 -0.0410322 -0.0400197 -0.0386931 -0.0369614 -0.0343669 -0.0303347 -0.0250358 -0.0184888 -0.0104958 -2.38524e-18 
0.02 0.02 0.02 0.02 0.02 0.02 0.02 0.02 0.02 0.02 0.02 0.02 0.02 0.02 0.02 0.02 0.02 0.02 0.02 0.02 0.02 0.02 0.02 0.02 0.02 0.02 0.02 0.02 0.02 0.02 0.02 0.02 0.02 0.0200001 0.0200001 0.0200001 0.0200001 0.0200001 0.0200002 0.0200002 0.0200002 0.0200003 0.0200003 0.0200003 0.0200004 0.0200005 0.0200005 0.0200006 0.0200007 0.0200008 0.0200009 0.020001 0.0200012 0.0200013 0.0200014 0.0200016 0.0200018 0.020002 0.0200022 0.0200024 0.0200027 0.0200029 0.0200033 0.0200036 0.0200041 0.0200046 0.0200052 0.0200058 0.0200066 0.0200076 0.0200086 0.0200099 0.0200114 0.0200132 0.0200152 0.0200177 0.0200205 0.0200237 0.0200275 0.0200318 0.0200368 0.0200425 0.020049 0.0200564 0.0200649 0.0200744 0.0200852 0.0200973 0.0201108 0.020126 0.0201428 0.0201616 0.0201823 0.0202052 0.0202304 0.020258 0.0202882 0.0203211 0.0203568 0.0203954 0.0204371 0.0204819 0.0205297 0.0205806 0.0206344 0.020691 0.0207501 0.0208111 0.0208736 0.0209366 0.0209994 0.0210612 0.0211211 0.0211783 0.0212319 0.0212809 0.0213245 0.0213616 0.0213915 0.0214133 0.0214266 0.0214309 0.0214261 0.0214121 0.0213892 0.0213576 0.0213179 0.0212707 0.0212165 0.021156 0.02109 0.0210191 0.0209438 0.0208647 0.0207819 0.0206953 0.020605 0.0205122 0.0204203 0.0203335 0.0202542 0.0201811 0.0201079 0.0200182 0.0198972 0.0197295 0.0195124 0.0192491 0.0189433 0.0185983 0.0182206 0.0178215 0.0174068 0.0169678 0.0164636 0.0158478 0.0150606 0.0139884 0.012355 0.0105425 0.00918908 0.00653809 0 0 -0.00778317 -0.00947089 -0.0125065 -0.0149644 -0.0176525 -0.020649 -0.0237991 -0.0266063 -0.0293844 -0.0319537 -0.0340979 -0.0360007 -0.0379126 -0.0399992 -0.0415769 -0.0428025 -0.0442729 -0.0468246 -0.0486495 -0.0493723 -0.0494416 -0.0494755 -0.0579285 0 0 0 0 0 0 0 0 0 0 0 0 0 0 0 0 0 0 0 0 0 0 0 0 0 0 0 0 0 0 0 0 0 0 0 0 0 0 0 0 0 0 0 0 0 0 0 0 0 0 0 0 0 0 0 0 0 0 0 0 0 0 0 0 0 0 0 0 0 0 0 0 0 0 0 0 0 0 0 0 0 0 0 0 0 0 0 0 0 0 0 0 0 0 0 0 0 0 0 0 0 0 0 0 0 0 0 0 0 0 0 0 0 0 0 0 0 0 0 0 0 0 0 0 0 0 0 0 0 0 0 0 0 0 0 0 0 0 0 0 0 0 0 0 0 0 0 0 0 0 0 0 0 0 0 0 0 0 0 0 0 0 0 0 0 0 0 0 0 0 0 0 0 0 0 0 0 0 0 0 0 0 0 0 0 0 0 0 0 0 0 0 0 0 0 0 0 -0.0424152 -0.04653 -0.0464688 -0.0459214 -0.0455639 -0.0454124 -0.0454392 -0.0456113 -0.0458977 -0.0462716 -0.0467114 -0.0471997 -0.0477224 -0.048267 -0.0488224 -0.0493723 -0.0499141 -0.0504502 -0.0509635 -0.0514484 -0.0518999 -0.0523125 -0.052672 -0.0529638 -0.0532059 -0.0533787 -0.0534775 -0.0535017 -0.0534551 -0.0533464 -0.0531887 -0.0529962 -0.0527787 -0.0525496 -0.0524188 -0.0532839 -0.0606811 0 0 0 0 0 0 0 0 0 0 0 0 0 0 0 0 0 0 0 0 0 -0.0456231 -0.0493489 -0.0508778 -0.0517368 -0.0522858 -0.0525637 -0.0526967 -0.0527558 -0.0527857 -0.0528023 -0.0528101 -0.0528108 -0.0528062 -0.0527986 -0.0527903 -0.0527839 -0.052782 -0.0527865 -0.0527988 -0.052819 -0.0528454 -0.0528746 -0.0529019 -0.0529219 -0.0529304 -0.052936 -0.0530562 -0.054221 -0.0631041 0 0 0 0 0 0 0 0 0 0 0 0 0 0 0 0 0 0 0 0 0 0 0 0 0 0 0 0 0 0 0 0 0 0 0 0 0 0 0 0 0 0 0 0 0 0 0 0 0 0 0 0 -0.0506312 -0.0531532 -0.0536979 -0.0536606 -0.053431 -0.0531716 -0.0529028 -0.0526282 -0.0523484 -0.0520634 -0.051773 -0.0514755 -0.0511675 -0.050838 -0.0504405 -0.0499239 -0.0494317 -0.0490318 -0.0486822 -0.0483665 -0.0480788 -0.0478149 -0.0475716 -0.0473464 -0.0471373 -0.0469428 -0.0467617 -0.0465932 -0.0464368 -0.0462922 -0.0461593 -0.0460383 -0.0459293 -0.0458326 -0.0457481 -0.0456751 -0.0456125 -0.0455588 -0.0455116 -0.0454689 -0.0454296 -0.0453935 -0.0453612 -0.0453265 -0.0452575 -0.0450693 -0.0446212 -0.0437764 -0.0428594 -0.0426895 -0.0432094 -0.0437193 -0.0440452 -0.0442685 -0.0444235 -0.0445306 -0.0445954 -0.0446237 -0.0446177 -0.0445802 -0.0445134 -0.0444199 -0.0443028 -0.0441659 -0.0440131 -0.0438493 -0.0436795 -0.043509 -0.0433432 -0.043187 -0.0430444 -0.0429183 -0.0428101 -0.0427195 -0.0426447 -0.0425825 -0.042529 -0.0424801 -0.0424323 -0.0423824 -0.0423283 -0.0422683 -0.0422007 -0.0421231 -0.0420312 -0.041916 -0.0417558 -0.0414887 -0.0409928 -0.0401258 -0.0388816 -0.0370958 -0.0344454 -0.0306335 -0.0256508 -0.0193883 -0.0112673 -1.95156e-18 
0.02 0.02 0.02 0.02 0.02 0.02 0.02 0.02 0.02 0.02 0.02 0.02 0.02 0.02 0.02 0.02 0.02 0.02 0.02 0.02 0.02 0.02 0.02 0.02 0.02 0.02 0.02 0.02 0.02 0.02 0.02 0.02 0.02 0.02 0.02 0.0200001 0.0200001 0.0200001 0.0200001 0.0200001 0.0200002 0.0200002 0.0200002 0.0200003 0.0200003 0.0200004 0.0200005 0.0200005 0.0200006 0.0200007 0.0200008 0.0200009 0.020001 0.0200011 0.0200013 0.0200014 0.0200016 0.0200018 0.020002 0.0200022 0.0200024 0.0200027 0.020003 0.0200034 0.0200038 0.0200043 0.0200048 0.0200055 0.0200062 0.0200071 0.0200082 0.0200094 0.0200109 0.0200126 0.0200146 0.0200169 0.0200196 0.0200227 0.0200264 0.0200305 0.0200354 0.0200409 0.0200472 0.0200544 0.0200625 0.0200717 0.0200821 0.0200938 0.0201069 0.0201215 0.0201378 0.0201558 0.0201758 0.0201979 0.0202222 0.0202488 0.0202778 0.0203095 0.0203439 0.0203811 0.0204212 0.0204642 0.0205103 0.0205592 0.020611 0.0206655 0.0207223 0.0207811 0.0208412 0.0209019 0.0209625 0.0210219 0.0210795 0.0211343 0.0211854 0.0212319 0.0212729 0.0213076 0.0213351 0.0213547 0.0213658 0.0213682 0.0213616 0.0213461 0.0213216 0.0212887 0.0212478 0.0211993 0.0211439 0.0210822 0.0210149 0.0209426 0.0208659 0.0207852 0.0207012 0.0206142 0.0205252 0.0204357 0.0203486 0.0202671 0.0201914 0.0201162 0.0200318 0.0199264 0.0197862 0.019604 0.0193776 0.0191083 0.0187992 0.0184546 0.0180793 0.0176773 0.0172477 0.0167767 0.0162422 0.0156025 0.0147901 0.0137037 0.0121637 0.0102635 0.008316 0.00772065 0 -0.00267833 -0.00703114 -0.00969608 -0.0121592 -0.0146434 -0.0173031 -0.0201431 -0.0232162 -0.0260649 -0.0288284 -0.0313915 -0.0336329 -0.0356998 -0.0377055 -0.0396575 -0.041254 -0.0426721 -0.0443043 -0.0462129 -0.0477062 -0.0485532 -0.0493602 -0.0500111 -0.0519848 -0.0537843 -0.0541037 -0.0543583 -0.0540059 -0.0538649 -0.0540851 -0.0545465 -0.0557407 -0.0567497 -0.0579406 -0.0587613 -0.0599 -0.0610313 -0.0614365 -0.0641178 -0.0667918 -0.0680863 -0.0686795 -0.0784624 -0.07091 0 0 0 0 0 0 0 0 0 0 0 0 0 0 0 0 0 0 0 0 0 0 0 0 0 0 0 0 0 -0.0566815 -0.0612615 -0.0627013 -0.0629195 -0.0624646 -0.0616449 -0.0613964 -0.0613864 -0.0614733 -0.061621 -0.0618155 -0.0620288 -0.0621083 -0.061767 -0.0613031 -0.0609613 -0.0606994 -0.0605272 -0.0605757 -0.0618154 -0.0717613 0 0 0 0 0 0 0 0 0 0 0 0 0 0 0 0 0 0 0 0 0 0 0 0 0 0 0 0 0 0 0 0 0 0 0 0 0 0 0 0 0 0 0 0 0 0 0 0 0 0 0 0 0 0 0 0 0 0 0 0 0 0 0 0 0 0 0 0 0 0 0 0 0 0 0 0 0 0 0 0 0 0 0 0 0 0 0 0 0 0 0 0 0 0 0 0 0 0 0 0 0 0 0 0 0 0 0 0 0 0 0 0 0 0 0 0 0 0 0 -0.0565707 -0.0596433 -0.0576478 -0.0544245 -0.0521266 -0.0502183 -0.0485371 -0.0471949 -0.046753 -0.0468469 -0.0466021 -0.0460629 -0.0456973 -0.045532 -0.0455421 -0.0456966 -0.0459654 -0.0463224 -0.0467463 -0.04722 -0.0477294 -0.0482621 -0.0488071 -0.0493544 -0.0498949 -0.0504208 -0.0509254 -0.0514024 -0.0518459 -0.0522495 -0.0526062 -0.0529083 -0.0531482 -0.0533191 -0.0534168 -0.0534406 -0.0533945 -0.0532875 -0.0531329 -0.0529458 -0.0527397 -0.0525453 -0.052524 -0.0530877 -0.0546672 -0.05441 -0.0530342 -0.0525803 -0.0521756 -0.05182 -0.051523 -0.0512914 -0.0511247 -0.0510157 -0.0509539 -0.0509289 -0.0509328 -0.0509601 -0.0510056 -0.0510624 -0.0511219 -0.0511754 -0.0512004 -0.0511141 -0.0507483 -0.0499584 -0.0495275 -0.0501354 -0.0510451 -0.0517693 -0.0522886 -0.0525723 -0.0527184 -0.0527831 -0.0528139 -0.052829 -0.0528352 -0.052834 -0.0528273 -0.0528174 -0.0528064 -0.0527969 -0.0527912 -0.052791 -0.0527977 -0.0528112 -0.05283 -0.0528513 -0.0528711 -0.0528861 -0.0528979 -0.0529364 -0.0531769 -0.0540526 -0.0560432 -0.0562952 -0.0555092 -0.055692 -0.0559841 -0.056384 -0.0568979 -0.0575241 -0.0582165 -0.0587613 -0.0589551 -0.0593212 -0.0597246 -0.0601307 -0.0605522 -0.0610743 -0.0617566 -0.0625503 -0.0719224 0 0 0 0 0 0 0 0 0 0 0 0 0 0 0 0 -0.0589967 -0.0624108 -0.0634533 -0.0635813 -0.0633887 -0.0630787 -0.0626286 -0.0619185 -0.0608292 -0.0601215 -0.0596265 -0.0592171 -0.058838 -0.0584605 -0.0580718 -0.0576367 -0.0569649 -0.0556655 -0.0543 -0.053985 -0.0538915 -0.0537176 -0.0534689 -0.0532061 -0.0529379 -0.0526642 -0.0523855 -0.0521004 -0.0518086 -0.0515067 -0.0511883 -0.0508383 -0.0504348 -0.0499767 -0.0495339 -0.0491353 -0.0487777 -0.0484534 -0.0481576 -0.0478866 -0.0476373 -0.0474073 -0.0471943 -0.046997 -0.046814 -0.0466443 -0.0464874 -0.0463427 -0.0462099 -0.046089 -0.0459798 -0.0458823 -0.0457961 -0.0457203 -0.045654 -0.0455955 -0.0455435 -0.0454966 -0.0454536 -0.045412 -0.0453631 -0.0452829 -0.0451219 -0.0447956 -0.0442887 -0.0436739 -0.0432071 -0.0432163 -0.043506 -0.0438231 -0.0440845 -0.0442826 -0.0444278 -0.0445307 -0.0445931 -0.0446195 -0.0446114 -0.0445715 -0.0445021 -0.044406 -0.0442867 -0.044148 -0.0439941 -0.0438301 -0.0436609 -0.0434919 -0.0433284 -0.0431751 -0.0430357 -0.0429128 -0.0428076 -0.0427195 -0.0426464 -0.0425853 -0.0425325 -0.0424841 -0.0424365 -0.0423869 -0.0423331 -0.0422733 -0.0422058 -0.0421279 -0.0420343 -0.041913 -0.0417327 -0.0414289 -0.040908 -0.0400724 -0.0388391 -0.0370331 -0.0344167 -0.0307974 -0.0260759 -0.0199905 -0.0117658 -1.0842e-18 