# vtk DataFile Version 2.0
iteration 864
ASCII

DATASET STRUCTURED_POINTS
DIMENSIONS 621 64 1
ORIGIN 0 0 0
SPACING 0.00161031 0.00161031 0.00161031

POINT_DATA 39744
SCALARS P float 1
LOOKUP_TABLE default
0 0 0 0 0 0 0 0 0 0 0 0 0 0 0 0 0 0 0 0 0 0 0 0 0 0 0 0 0 0 0 0 0 0 0 0 0 0 0 0 0 0 0 0 0 0 0 0 0 0 0 0 0 0 0 0 0 0 0 0 0 0 0 0 0 0 0 0 0 0 0 0 0 0 0 0 0 0 0 0 0 0 0 0 0 0 0 0 0 0 0 0 0 0 0 0 0 0 0 0 0 0 0 0 0 0 0 0 0 0 0 0 0 0 0 0 0 0 0 0 0 0 0 0 0 0 0 0 0 0 0 0 0 0 0 0 0 0 0 0 0 0 0 0 0 0 0 0 0 0 0 0 0 0 0 0 0 0 0 0 0 0 0 0 0 0 0 0 0 0 0 0 0 0 0 0 0 0 0 0 0 0 0 0 0 0 0 0 0 0 0 0 0 0 0 0 0 0 0 0 0 0 0 0 0 0 0 0 0 0 0 0 0 0 0 0 0 0 0 0 0 0 0 0 0 0 0 0 0 0 0 0 0 0 0 0 0 0 0 0 0 0 0 0 0 0 0 0 0 0 0 0 0 0 0 0 0 0 0 0 0 0 0 0 0 0 0 0 0 0 0 0 0 0 0 0 0 0 0 0 0 0 0 0 0 0 0 0 0 0 0 0 0 0 0 0 0 0 0 0 0 0 0 0 0 0 0 0 0 0 0 0 0 0 0 0 0 0 0 0 0 0 0 0 0 0 0 0 0 0 0 0 0 0 0 0 0 0 0 0 0 0 0 0 0 0 0 0 0 0 0 0 0 0 0 0 0 0 0 0 0 0 0 0 0 0 0 0 0 0 0 0 0 0 0 0 0 0 0 0 0 0 0 0 0 0 0 0 0 0 0 0 0 0 0 0 0 0 0 0 0 0 0 0 0 0 0 0 0 0 0 0 0 0 0 0 0 0 0 0 0 0 0 0 0 0 0 0 0 0 0 0 0 0 0 0 0 0 0 0 0 0 0 0 0 0 0 0 0 0 0 0 0 0 0 0 0 0 0 0 0 0 0 0 0 0 0 0 0 0 0 0 0 0 0 0 0 0 0 0 0 0 0 0 0 0 0 0 0 0 0 0 0 0 0 0 0 0 0 0 0 0 0 0 0 0 0 0 0 0 0 0 0 0 0 0 0 0 0 0 0 0 0 0 0 0 0 0 0 0 0 0 0 0 0 0 0 0 0 0 0 0 0 0 0 0 0 0 0 0 0 0 0 0 0 0 0 0 0 0 0 0 0 0 0 0 0 0 0 0 0 0 0 0 0 0 0 0 0 0 0 0 0 0 0 0 0 0 0 0 0 0 0 0 0 0 0 0 0 0 0 0 0 0 0 0 0 0 0 0 0 0 0 0 0 0 0 0 0 0 0 
0.02 0.02 0.02 0.02 0.02 0.02 0.02 0.02 0.02 0.02 0.02 0.02 0.02 0.02 0.02 0.02 0.02 0.02 0.02 0.02 0.02 0.02 0.02 0.02 0.02 0.02 0.02 0.02 0.02 0.02 0.02 0.02 0.02 0.02 0.02 0.02 0.02 0.02 0.02 0.02 0.02 0.02 0.02 0.0199999 0.0199999 0.0199999 0.0199998 0.0199998 0.0199998 0.0199997 0.0199996 0.0199995 0.0199994 0.0199993 0.0199992 0.019999 0.0199988 0.0199986 0.0199984 0.0199982 0.0199979 0.0199975 0.0199972 0.0199968 0.0199963 0.0199958 0.0199953 0.0199946 0.019994 0.0199932 0.0199924 0.0199915 0.0199905 0.0199894 0.0199882 0.0199869 0.0199855 0.0199839 0.0199822 0.0199804 0.0199784 0.0199762 0.0199738 0.0199712 0.0199683 0.0199652 0.0199619 0.0199583 0.0199543 0.01995 0.0199454 0.0199403 0.0199349 0.019929 0.0199225 0.0199156 0.0199081 0.0199 0.0198912 0.0198817 0.0198715 0.0198605 0.0198486 0.0198358 0.0198221 0.0198073 0.0197915 0.0197744 0.0197561 0.0197368 0.019716 0.0196938 0.0196705 0.019646 0.0196201 0.0195933 0.0195655 0.0195369 0.0195078 0.0194785 0.0194494 0.0194208 0.0193931 0.0193666 0.0193417 0.0193188 0.0192982 0.0192804 0.0192656 0.0192545 0.0192472 0.0192441 0.0192455 0.0192516 0.0192627 0.0192788 0.0193 0.0193263 0.0193576 0.0193938 0.0194347 0.0194801 0.0195296 0.0195829 0.0196398 0.0196997 0.0197623 0.019827 0.0198934 0.019961 0.0200292 0.0200973 0.0201645 0.0202301 0.0202931 0.0203522 0.020406 0.0204528 0.0204905 0.0205168 0.0205288 0.0205234 0.0204972 0.0204466 0.0203678 0.0202573 0.0201117 0.0199282 0.0197045 0.0194387 0.0191296 0.0187764 0.0183805 0.0179469 0.0174683 0.0169428 0.0164153 0.0163185 0.0180958 0 0 0 0 0 0 0 0 0 0 0 0 0 0 0 0 0 0 0 0 0 0 0 0 0 0 0 0 0 0 0 0 0 0 0 0 0 0 0 0 0 0 0 0 0 0 0 0 0 0 0 0 0 0 0 0 0 0 0 0 0 0 0 0 0 0 0 0 0 0 0 0 0 0 0 0 0 0 0 0 0 0 0 0 0 0 0 0 0 0 0 0 0 0 0 0 0 0 0 0 0 0 0 0 0 0 0 0 0 0 0 0 0 0 0 0 0 0 0 0 0 0 0 0 0 0 0 0 0 0 0 0 0 0 0 0 0 0 0 0 0 0 0 0 0 0 0 0 0 0 0 0 0 0 0 0 0 0 0 0 0 0 0 0 0 0 0 0 0 0 0 0 0 0 0 0 0 0 0 0 0 0 0 0 0 0 0 0 0 0 0 0 0 0 0 0 0 0 0 0 0 0 0 0 0 0 0 0 0 0 0 0 0 0 0 0 0 0 0 0 0 0 0 0 0 0 0 0 0 0 0 0 0 0 0 0 0 0 0 0 0 0 0 0 0 0 0 0 0 0 0 0 0 0 0 0 0 0 0 0 0 0 0 0 0 0 0 0 0 0 0 0 0 0 0 0 0 0 0 0 0 0 0 0 0 0 0 0 0 0 0 0 0 0 0 0 0 0 0 0 0 0 0 0 0 0 0 0 0 0 0 0 0 0 0 0 0 0 0 0 0 0 0 0 0 0 0 0 0 0 0 0 0 0 0 0 0 0 0 0 0 0 0 0 0 0 0 0 0 0 0 0 0 0 0 0 0 0 0 0 0 0 0 0 0 0 0 0 0 0 0 0 0 0 0 0 0 0 0 0 0 0 0 0 0 0 0 0 0 0 0 0 0 0 0 0 0 0 0 0 0 0 0 0 0 0 0 0 0 0 0 0 0 0 0 0 0 0 0 0 0 0 0 0 0 0 0 0 0 0 0 0 0 0 0 0 0 0 0 0 0 0 
0.02 0.02 0.02 0.02 0.02 0.02 0.02 0.02 0.02 0.02 0.02 0.02 0.02 0.02 0.02 0.02 0.02 0.02 0.02 0.02 0.02 0.02 0.02 0.02 0.02 0.02 0.02 0.02 0.02 0.02 0.02 0.02 0.02 0.02 0.02 0.02 0.02 0.02 0.02 0.02 0.02 0.02 0.02 0.0199999 0.0199999 0.0199999 0.0199998 0.0199998 0.0199997 0.0199997 0.0199996 0.0199995 0.0199994 0.0199993 0.0199992 0.019999 0.0199988 0.0199986 0.0199984 0.0199981 0.0199978 0.0199975 0.0199971 0.0199967 0.0199963 0.0199958 0.0199952 0.0199946 0.0199939 0.0199932 0.0199923 0.0199914 0.0199904 0.0199893 0.0199881 0.0199868 0.0199854 0.0199838 0.0199821 0.0199803 0.0199782 0.019976 0.0199736 0.019971 0.0199682 0.0199651 0.0199617 0.0199581 0.0199541 0.0199498 0.0199451 0.0199401 0.0199346 0.0199287 0.0199222 0.0199153 0.0199077 0.0198996 0.0198908 0.0198813 0.0198711 0.01986 0.0198481 0.0198353 0.0198216 0.0198068 0.019791 0.0197741 0.019756 0.0197367 0.0197161 0.0196941 0.019671 0.0196466 0.019621 0.0195942 0.0195664 0.0195378 0.0195086 0.0194792 0.01945 0.0194212 0.0193933 0.0193667 0.0193416 0.0193184 0.0192976 0.0192795 0.0192645 0.019253 0.0192454 0.019242 0.0192431 0.0192488 0.0192595 0.0192752 0.0192959 0.0193217 0.0193526 0.0193882 0.0194286 0.0194734 0.0195224 0.0195752 0.0196315 0.0196908 0.0197527 0.0198167 0.0198825 0.0199493 0.0200167 0.020084 0.0201505 0.0202153 0.0202775 0.0203359 0.0203891 0.0204353 0.0204727 0.0204987 0.0205107 0.0205055 0.0204799 0.0204301 0.0203525 0.0202435 0.0200998 0.0199186 0.0196974 0.0194345 0.0191284 0.0187781 0.0183855 0.0179567 0.0174929 0.0169705 0.0164929 0.0162055 0.0163217 0.0156508 0.0148423 0.0141157 0.01344 0.0127703 0.0120805 0.0112949 0.0103537 0.00944652 0.00879106 0.00923742 0 0 0 0 0 0 0 0 0 0 0 0 0 0 0 0 0 0 0 0 0 0 0 0 0 0 0 0 0 0 0 0 0 0 0 0 0 0 0 0 0 0 0 0 0 0 0 0 0 0 0 0 0 0 0 0 0 0 0 0 0 0 0 0 0 0 0 0 0 0 0 0 0 0 0 0 0 0 0 0 0 0 0 0 0 0 0 0 0 0 0 0 0 0 0 0 0 0 0 0 0 0 0 0 0 0 0 0 0 0 0 0 0 0 0 0 0 0 0 0 0 0 0 0 0 0 0 0 0 0 0 0 0 0 0 0 0 0 0 0 0 0 0 0 0 0 0 0 0 0 0 0 0 0 0 0 0 0 0 0 0 0 0 0 0 0 0 0 0 0 0 0 0 0 0 0 0 0 0 0 0 0 0 0 0 0 0 0 0 0 0 0 0 0 0 0 0 0 0 0 0 0 0 0 0 0 0 0 0 0 0 0 0 0 0 0 0 0 0 0 0 0 0 0 0 0 0 0 0 0 0 0 0 0 0 0 0 0 0 0 0 0 0 0 0 0 0 0 0 0 0 0 0 0 0 0 0 0 0 0 0 0 0 0 0 0 0 0 0 0 0 0 0 0 0 0 0 0 0 0 0 0 0 0 0 0 0 0 0 0 0 0 0 0 0 0 0 0 0 0 0 0 0 0 0 0 0 0 0 0 0 0 0 0 0 0 0 0 0 0 0 0 0 0 0 0 0 0 0 0 0 0 0 0 0 0 0 0 0 0 0 0 0 0 0 0 0 0 0 0 0 0 0 0 0 0 0 0 0 0 0 0 0 0 0 0 0 0 0 0 0 0 0 0 0 0 0 0 0 0 0 0 0 0 0 0 0 0 0 0 0 0 0 0 0 0 0 0 0 0 0 0 0 0 0 0 0 0 0 0 0 0 0 0 0 0 0 0 0 0 0 0 0 0 0 0 0 0 0 0 0 
0.02 0.02 0.02 0.02 0.02 0.02 0.02 0.02 0.02 0.02 0.02 0.02 0.02 0.02 0.02 0.02 0.02 0.02 0.02 0.02 0.02 0.02 0.02 0.02 0.02 0.02 0.02 0.02 0.02 0.02 0.02 0.02 0.02 0.02 0.02 0.02 0.02 0.02 0.02 0.02 0.02 0.02 0.0199999 0.0199999 0.0199999 0.0199999 0.0199998 0.0199998 0.0199997 0.0199997 0.0199996 0.0199995 0.0199994 0.0199993 0.0199991 0.019999 0.0199988 0.0199986 0.0199983 0.0199981 0.0199978 0.0199974 0.0199971 0.0199966 0.0199962 0.0199957 0.0199951 0.0199945 0.0199938 0.019993 0.0199922 0.0199912 0.0199902 0.0199891 0.0199879 0.0199866 0.0199851 0.0199836 0.0199818 0.01998 0.0199779 0.0199757 0.0199733 0.0199706 0.0199678 0.0199647 0.0199613 0.0199576 0.0199536 0.0199493 0.0199446 0.0199395 0.019934 0.0199281 0.0199216 0.0199146 0.0199071 0.0198989 0.0198901 0.0198806 0.0198704 0.0198593 0.0198474 0.0198346 0.0198208 0.0198061 0.0197902 0.0197733 0.0197552 0.019736 0.0197155 0.0196938 0.0196709 0.0196467 0.0196212 0.0195946 0.019567 0.0195384 0.0195091 0.0194796 0.0194501 0.019421 0.0193928 0.0193658 0.0193404 0.0193169 0.0192958 0.0192774 0.0192621 0.0192503 0.0192423 0.0192386 0.0192393 0.0192447 0.019255 0.0192703 0.0192906 0.0193161 0.0193465 0.0193818 0.0194217 0.0194661 0.0195146 0.019567 0.0196227 0.0196815 0.0197428 0.0198062 0.0198712 0.0199373 0.0200038 0.0200702 0.0201357 0.0201994 0.0202605 0.0203178 0.0203698 0.020415 0.0204514 0.0204766 0.0204879 0.0204823 0.0204565 0.0204068 0.0203296 0.0202215 0.020079 0.0198993 0.01968 0.0194194 0.0191158 0.0187686 0.0183798 0.0179595 0.0175215 0.0170434 0.0165818 0.0162833 0.0160063 0.0154265 0.0147866 0.0140795 0.0134044 0.0127113 0.0119877 0.0111994 0.0103595 0.00942488 0.00863122 0.00809295 0.00698917 0.00568043 0.00428604 0.00286885 0.00171465 -0.000168658 0 0 0 0 0 0 0 0 0 0 0 0 0 0 0 0 0 0 0 0 0 0 0 0 0 0 0 0 0 0 0 0 0 0 0 0 0 0 0 0 0 0 0 0 0 0 0 0 0 0 0 0 0 0 0 0 0 0 0 0 0 0 0 0 0 0 0 0 0 0 0 0 0 0 0 0 0 0 0 0 0 0 0 0 0 0 0 0 0 0 0 0 0 0 0 0 0 0 0 0 0 0 0 0 0 0 0 0 0 0 0 0 0 0 0 0 0 0 0 0 0 0 0 0 0 0 0 0 0 0 0 0 0 0 0 0 0 0 0 0 0 0 0 0 0 0 0 0 0 0 0 0 0 0 0 0 0 0 0 0 0 0 0 0 0 0 0 0 0 0 0 0 0 0 0 0 0 0 0 0 0 0 0 0 0 0 0 0 0 0 0 0 0 0 0 0 0 0 0 0 0 0 0 0 0 0 0 0 0 0 0 0 0 0 0 0 0 0 0 0 0 0 0 0 0 0 0 0 0 0 0 0 0 0 0 0 0 0 0 0 0 0 0 0 0 0 0 0 0 0 0 0 0 0 0 0 0 0 0 0 0 0 0 0 0 0 0 0 0 0 0 0 0 0 0 0 0 0 0 0 0 0 0 0 0 0 0 0 0 0 0 0 0 0 0 0 0 0 0 0 0 0 0 0 0 0 0 0 0 0 0 0 0 0 0 0 0 0 0 0 0 0 0 0 0 0 0 0 0 0 0 0 0 0 0 0 0 0 0 0 0 0 0 0 0 0 0 0 0 0 0 0 0 0 0 0 0 0 0 0 0 0 0 0 0 0 0 0 0 0 0 0 0 0 0 0 0 0 0 0 0 0 0 0 0 0 0 0 0 0 0 0 0 0 0 0 0 0 0 0 0 0 0 0 0 0 0 0 0 0 0 0 0 0 0 0 0 0 0 0 0 0 0 0 -5.42101e-20 
0.02 0.02 0.02 0.02 0.02 0.02 0.02 0.02 0.02 0.02 0.02 0.02 0.02 0.02 0.02 0.02 0.02 0.02 0.02 0.02 0.02 0.02 0.02 0.02 0.02 0.02 0.02 0.02 0.02 0.02 0.02 0.02 0.02 0.02 0.02 0.02 0.02 0.02 0.02 0.02 0.02 0.0199999 0.0199999 0.0199999 0.0199999 0.0199998 0.0199998 0.0199997 0.0199997 0.0199996 0.0199995 0.0199994 0.0199993 0.0199992 0.0199991 0.0199989 0.0199987 0.0199985 0.0199983 0.019998 0.0199977 0.0199973 0.019997 0.0199965 0.0199961 0.0199955 0.019995 0.0199943 0.0199936 0.0199928 0.019992 0.019991 0.01999 0.0199889 0.0199877 0.0199863 0.0199849 0.0199833 0.0199815 0.0199796 0.0199776 0.0199753 0.0199729 0.0199703 0.0199674 0.0199642 0.0199608 0.0199572 0.0199532 0.0199488 0.0199441 0.019939 0.0199335 0.0199275 0.0199211 0.0199141 0.0199065 0.0198984 0.0198895 0.01988 0.0198698 0.0198587 0.0198468 0.019834 0.0198202 0.0198054 0.0197896 0.0197727 0.0197546 0.0197354 0.0197149 0.0196932 0.0196704 0.0196464 0.0196212 0.0195948 0.0195673 0.0195389 0.0195097 0.0194801 0.0194503 0.019421 0.0193924 0.019365 0.0193391 0.0193152 0.0192936 0.0192747 0.019259 0.0192467 0.0192383 0.0192341 0.0192343 0.0192392 0.0192489 0.0192637 0.0192835 0.0193083 0.0193382 0.0193729 0.0194122 0.019456 0.0195038 0.0195555 0.0196105 0.0196684 0.0197289 0.0197914 0.0198553 0.0199203 0.0199856 0.0200506 0.0201147 0.0201769 0.0202365 0.0202922 0.0203427 0.0203864 0.0204213 0.0204453 0.0204557 0.0204494 0.0204232 0.0203736 0.0202971 0.02019 0.0200491 0.0198715 0.0196549 0.0193976 0.019098 0.0187557 0.018374 0.0179661 0.017551 0.0171312 0.0166871 0.0163044 0.0158759 0.015343 0.0147267 0.0140574 0.0133802 0.0126812 0.0119375 0.0111545 0.0103559 0.00952742 0.00860316 0.00781735 0.0067608 0.00554485 0.00421272 0.00283831 0.00141465 -0.00030859 -0.00225051 -0.00426532 -0.00661442 -0.00941786 0 0 0 0 0 0 0 0 0 0 0 0 0 0 0 0 0 0 0 0 0 0 0 0 0 0 0 0 0 0 0 0 0 0 0 0 0 0 0 0 0 0 0 0 0 0 0 0 0 0 0 0 0 0 0 0 0 0 0 0 0 0 0 0 0 0 0 0 0 0 0 0 0 0 0 0 0 0 0 0 0 0 0 0 0 0 0 0 0 0 0 0 0 0 0 0 0 0 0 0 0 0 0 0 0 0 0 0 0 0 0 0 0 0 0 0 0 0 0 0 0 0 0 0 0 0 0 0 0 0 0 0 0 0 0 0 0 0 0 0 0 0 0 0 0 0 0 0 0 0 0 0 0 0 0 0 0 0 0 0 0 0 0 0 0 0 0 0 0 0 0 0 0 0 0 0 0 0 0 0 0 0 0 0 0 0 0 0 0 0 0 0 0 0 0 0 0 0 0 0 0 0 0 0 0 0 0 0 0 0 0 0 0 0 0 0 0 0 0 0 0 0 0 0 0 0 0 0 0 0 0 0 0 0 0 0 0 0 0 0 0 0 0 0 0 0 0 0 0 0 0 0 0 0 0 0 0 0 0 0 0 0 0 0 0 0 0 0 0 0 0 0 0 0 0 0 0 0 0 0 0 0 0 0 0 0 0 0 0 0 0 0 0 0 0 0 0 0 0 0 0 0 0 0 0 0 0 0 0 0 0 0 0 0 0 0 0 0 0 0 0 0 0 0 0 0 0 0 0 0 0 0 0 0 0 0 0 0 0 0 0 0 0 0 0 0 0 0 0 0 0 0 0 0 0 0 0 0 0 0 0 0 0 0 0 0 0 0 0 0 0 0 0 0 0 0 0 0 0 0 0 0 0 0 0 0 0 0 0 0 0 0 0 0 0 0 0 0 0 0 0 0 0 0 0 0 0 0 0 0 0 0 0 0 0 0 0 0 0 -0.00424246 2.1684e-19 
0.02 0.02 0.02 0.02 0.02 0.02 0.02 0.02 0.02 0.02 0.02 0.02 0.02 0.02 0.02 0.02 0.02 0.02 0.02 0.02 0.02 0.02 0.02 0.02 0.02 0.02 0.02 0.02 0.02 0.02 0.02 0.02 0.02 0.02 0.02 0.02 0.02 0.02 0.02 0.02 0.02 0.0199999 0.0199999 0.0199999 0.0199999 0.0199998 0.0199998 0.0199997 0.0199997 0.0199996 0.0199995 0.0199994 0.0199993 0.0199992 0.019999 0.0199988 0.0199987 0.0199984 0.0199982 0.0199979 0.0199976 0.0199973 0.0199969 0.0199964 0.019996 0.0199954 0.0199948 0.0199942 0.0199935 0.0199927 0.0199918 0.0199909 0.0199899 0.0199887 0.0199875 0.0199861 0.0199847 0.0199831 0.0199813 0.0199794 0.0199773 0.0199751 0.0199726 0.01997 0.0199671 0.0199639 0.0199605 0.0199569 0.0199529 0.0199485 0.0199438 0.0199387 0.0199332 0.0199272 0.0199208 0.0199138 0.0199062 0.0198981 0.0198892 0.0198797 0.0198695 0.0198584 0.0198465 0.0198337 0.01982 0.0198052 0.0197894 0.0197724 0.0197544 0.0197351 0.0197147 0.019693 0.0196702 0.0196462 0.019621 0.0195948 0.0195676 0.0195394 0.0195103 0.0194807 0.0194509 0.0194213 0.0193923 0.0193645 0.0193381 0.0193136 0.0192915 0.019272 0.0192557 0.0192428 0.0192338 0.0192289 0.0192284 0.0192326 0.0192416 0.0192556 0.0192746 0.0192986 0.0193276 0.0193615 0.0193999 0.0194427 0.0194896 0.0195403 0.0195942 0.019651 0.0197102 0.0197714 0.0198339 0.0198973 0.019961 0.0200242 0.0200864 0.0201467 0.0202042 0.0202578 0.0203063 0.020348 0.0203812 0.0204036 0.0204127 0.0204056 0.020379 0.0203296 0.0202538 0.0201483 0.0200096 0.019835 0.0196222 0.0193695 0.0190761 0.0187418 0.0183711 0.0179777 0.0175832 0.0171948 0.0167856 0.0163243 0.0158632 0.015312 0.0146986 0.0140488 0.0133714 0.0126656 0.0119137 0.0111327 0.0103393 0.00953787 0.0086795 0.00770053 0.00660408 0.00540782 0.00410321 0.00271137 0.00121358 -0.000474049 -0.00233445 -0.00415222 -0.00638665 -0.00887397 -0.0113617 -0.013796 -0.016445 -0.0205754 -0.0221946 0 0 0 0 0 0 0 0 0 0 0 0 0 0 0 0 0 0 0 0 0 0 0 0 0 0 0 0 0 0 0 0 0 0 0 0 0 0 0 0 0 0 0 0 0 0 0 0 0 0 0 0 0 0 0 0 0 0 0 0 0 0 0 0 0 0 0 0 0 0 0 0 0 0 0 0 0 0 0 0 0 0 0 0 0 0 0 0 0 0 0 0 0 0 0 0 0 0 0 0 0 0 0 0 0 0 0 0 0 0 0 0 0 0 0 0 0 0 0 0 0 0 0 0 0 0 0 0 0 0 0 0 0 0 0 0 0 0 0 0 0 0 0 0 0 0 0 0 0 0 0 0 0 0 0 0 0 0 0 0 0 0 0 0 0 0 0 0 0 0 0 0 0 0 0 0 0 0 0 0 0 0 0 0 0 0 0 0 0 0 0 0 0 0 0 0 0 0 0 0 0 0 0 0 0 0 0 0 0 0 0 0 0 0 0 0 0 0 0 0 0 0 0 0 0 0 0 0 0 0 0 0 0 0 0 0 0 0 0 0 0 0 0 0 0 0 0 0 0 0 0 0 0 0 0 0 0 0 0 0 0 0 0 0 0 0 0 0 0 0 0 0 0 0 0 0 0 0 0 0 0 0 0 0 0 0 0 0 0 0 0 0 0 0 0 0 0 0 0 0 0 0 0 0 0 0 0 0 0 0 0 0 0 0 0 0 0 0 0 0 0 0 0 0 0 0 0 0 0 0 0 0 0 0 0 0 0 0 0 0 0 0 0 0 0 0 0 0 0 0 0 0 0 0 0 0 0 0 0 0 0 0 0 0 0 0 0 0 0 0 0 0 0 0 0 0 0 0 0 0 0 0 0 0 0 0 0 0 0 0 0 0 0 0 0 0 0 0 0 0 0 0 0 0 0 0 0 0 0 0 0 0 0 -0.013554 -0.00706709 -6.50521e-19 
0.02 0.02 0.02 0.02 0.02 0.02 0.02 0.02 0.02 0.02 0.02 0.02 0.02 0.02 0.02 0.02 0.02 0.02 0.02 0.02 0.02 0.02 0.02 0.02 0.02 0.02 0.02 0.02 0.02 0.02 0.02 0.02 0.02 0.02 0.02 0.02 0.02 0.02 0.02 0.02 0.0199999 0.0199999 0.0199999 0.0199999 0.0199998 0.0199998 0.0199998 0.0199997 0.0199996 0.0199996 0.0199995 0.0199994 0.0199993 0.0199991 0.019999 0.0199988 0.0199986 0.0199984 0.0199981 0.0199979 0.0199975 0.0199972 0.0199968 0.0199964 0.0199959 0.0199953 0.0199947 0.0199941 0.0199934 0.0199926 0.0199917 0.0199908 0.0199897 0.0199886 0.0199873 0.019986 0.0199845 0.0199829 0.0199812 0.0199793 0.0199772 0.0199749 0.0199725 0.0199698 0.0199669 0.0199638 0.0199604 0.0199567 0.0199527 0.0199484 0.0199437 0.0199386 0.0199331 0.0199271 0.0199207 0.0199137 0.0199062 0.019898 0.0198893 0.0198798 0.0198695 0.0198585 0.0198466 0.0198338 0.0198201 0.0198054 0.0197896 0.0197727 0.0197546 0.0197354 0.0197149 0.0196933 0.0196705 0.0196464 0.0196213 0.0195951 0.019568 0.0195399 0.0195111 0.0194816 0.0194517 0.019422 0.0193928 0.0193645 0.0193376 0.0193125 0.0192897 0.0192696 0.0192526 0.0192389 0.0192291 0.0192234 0.019222 0.0192253 0.0192334 0.0192464 0.0192644 0.0192874 0.0193152 0.0193479 0.0193852 0.0194267 0.0194723 0.0195216 0.0195741 0.0196294 0.019687 0.0197464 0.0198071 0.0198685 0.01993 0.019991 0.0200509 0.0201087 0.0201637 0.0202147 0.0202607 0.0203 0.0203309 0.0203514 0.0203589 0.0203506 0.0203235 0.0202743 0.0201995 0.0200958 0.0199599 0.0197891 0.0195811 0.0193346 0.0190495 0.0187265 0.0183705 0.0179929 0.0176103 0.017231 0.0168384 0.0163964 0.015885 0.0153126 0.0146996 0.0140551 0.0133761 0.0126621 0.0119068 0.0111217 0.0103149 0.00948002 0.00858171 0.00758159 0.00647669 0.00527287 0.00396448 0.00253852 0.00100587 -0.000688702 -0.00252208 -0.00446108 -0.00646916 -0.00893466 -0.0112673 -0.0136896 -0.0162722 -0.0193672 -0.0222988 -0.0249896 -0.0274514 -0.0300892 -0.0370536 0 0 0 0 0 0 0 0 0 0 0 0 0 0 0 0 0 0 0 0 0 0 0 0 0 0 0 0 0 0 0 0 0 0 0 0 0 0 0 0 0 0 0 0 0 0 0 0 0 0 0 0 0 0 0 0 0 0 0 0 0 0 0 0 0 0 0 0 0 0 0 0 0 0 0 0 0 0 0 0 0 0 0 0 0 0 0 0 0 0 0 0 0 0 0 0 0 0 0 0 0 0 0 0 0 0 0 0 0 0 0 0 0 0 0 0 0 0 0 0 0 0 0 0 0 0 0 0 0 0 0 0 0 0 0 0 0 0 0 0 0 0 0 0 0 0 0 0 0 0 0 0 0 0 0 0 0 0 0 0 0 0 0 0 0 0 0 0 0 0 0 0 0 0 0 0 0 0 0 0 0 0 0 0 0 0 0 0 0 0 0 0 0 0 0 0 0 0 0 0 0 0 0 0 0 0 0 0 0 0 0 0 0 0 0 0 0 0 0 0 0 0 0 0 0 0 0 0 0 0 0 0 0 0 0 0 0 0 0 0 0 0 0 0 0 0 0 0 0 0 0 0 0 0 0 0 0 0 0 0 0 0 0 0 0 0 0 0 0 0 0 0 0 0 0 0 0 0 0 0 0 0 0 0 0 0 0 0 0 0 0 0 0 0 0 0 0 0 0 0 0 0 0 0 0 0 0 0 0 0 0 0 0 0 0 0 0 0 0 0 0 0 0 0 0 0 0 0 0 0 0 0 0 0 0 0 0 0 0 0 0 0 0 0 0 0 0 0 0 0 0 0 0 0 0 0 0 0 0 0 0 0 0 0 0 0 0 0 0 0 0 0 0 0 0 0 0 0 0 0 0 0 0 0 0 0 0 0 0 0 0 0 0 0 0 0 0 0 0 0 0 0 0 0 0 0 0 -0.0291557 -0.0250469 -0.0178649 -0.00972817 0 
0.02 0.02 0.02 0.02 0.02 0.02 0.02 0.02 0.02 0.02 0.02 0.02 0.02 0.02 0.02 0.02 0.02 0.02 0.02 0.02 0.02 0.02 0.02 0.02 0.02 0.02 0.02 0.02 0.02 0.02 0.02 0.02 0.02 0.02 0.02 0.02 0.02 0.02 0.02 0.0199999 0.0199999 0.0199999 0.0199999 0.0199999 0.0199998 0.0199998 0.0199997 0.0199997 0.0199996 0.0199995 0.0199994 0.0199993 0.0199992 0.0199991 0.0199989 0.0199988 0.0199986 0.0199983 0.0199981 0.0199978 0.0199975 0.0199971 0.0199967 0.0199963 0.0199958 0.0199953 0.0199947 0.019994 0.0199933 0.0199925 0.0199916 0.0199907 0.0199897 0.0199885 0.0199873 0.0199859 0.0199845 0.0199829 0.0199811 0.0199792 0.0199771 0.0199749 0.0199725 0.0199698 0.0199669 0.0199638 0.0199604 0.0199568 0.0199528 0.0199485 0.0199438 0.0199388 0.0199333 0.0199274 0.0199209 0.019914 0.0199065 0.0198984 0.0198896 0.0198802 0.01987 0.019859 0.0198472 0.0198344 0.0198207 0.019806 0.0197903 0.0197734 0.0197554 0.0197362 0.0197158 0.0196942 0.0196713 0.0196473 0.0196222 0.019596 0.0195688 0.0195408 0.0195121 0.0194827 0.0194529 0.0194231 0.0193937 0.0193651 0.0193377 0.0193121 0.0192886 0.0192678 0.0192499 0.0192355 0.0192247 0.019218 0.0192157 0.0192179 0.0192248 0.0192366 0.0192534 0.019275 0.0193015 0.0193328 0.0193685 0.0194085 0.0194524 0.0195 0.0195506 0.019604 0.0196596 0.0197168 0.0197752 0.0198342 0.0198932 0.0199515 0.0200085 0.0200633 0.0201153 0.0201633 0.0202062 0.0202426 0.0202708 0.0202888 0.0202943 0.0202846 0.0202568 0.0202076 0.0201338 0.0200321 0.0198994 0.019733 0.0195308 0.0192919 0.0190169 0.018708 0.0183692 0.0180085 0.0176348 0.0172508 0.016844 0.0163942 0.0158866 0.0153243 0.0147173 0.0140722 0.0133894 0.0126692 0.0119103 0.011117 0.0102906 0.0094221 0.00848704 0.00746223 0.00633997 0.00511949 0.00379401 0.00235106 0.000781409 -0.000919952 -0.00276065 -0.00475861 -0.00688432 -0.00912468 -0.0114327 -0.0138453 -0.016497 -0.0192847 -0.0220204 -0.0246489 -0.0270911 -0.0298274 -0.0334418 -0.0367468 -0.0387721 -0.0406269 -0.0421099 -0.0460453 -0.0546406 0 0 0 0 0 0 0 0 0 0 0 0 0 0 0 0 0 0 0 0 0 0 0 0 0 0 0 0 0 0 0 0 0 0 0 0 0 0 0 0 0 0 0 0 0 0 0 0 0 0 0 0 0 0 0 0 0 0 0 0 0 0 0 0 0 0 0 0 0 0 0 0 0 0 0 0 0 0 0 0 0 0 0 0 0 0 0 0 0 0 0 0 0 0 0 0 0 0 0 0 0 0 0 0 0 0 0 0 0 0 0 0 0 0 0 0 0 0 0 0 0 0 0 0 0 0 0 0 0 0 0 0 0 0 0 0 0 0 0 0 0 0 0 0 0 0 0 0 0 0 0 0 0 0 0 0 0 0 0 0 0 0 0 0 0 0 0 0 0 0 0 0 0 0 0 0 0 0 0 0 0 0 0 0 0 0 0 0 0 0 0 0 0 0 0 0 0 0 0 0 0 0 0 0 0 0 0 0 0 0 0 0 0 0 0 0 0 0 0 0 0 0 0 0 0 0 0 0 0 0 0 0 0 0 0 0 0 0 0 0 0 0 0 0 0 0 0 0 0 0 0 0 0 0 0 0 0 0 0 0 0 0 0 0 0 0 0 0 0 0 0 0 0 0 0 0 0 0 0 0 0 0 0 0 0 0 0 0 0 0 0 0 0 0 0 0 0 0 0 0 0 0 0 0 0 0 0 0 0 0 0 0 0 0 0 0 0 0 0 0 0 0 0 0 0 0 0 0 0 0 0 0 0 0 0 0 0 0 0 0 0 0 0 0 0 0 0 0 0 0 0 0 0 0 0 0 0 0 0 0 0 0 0 0 0 0 0 0 0 0 0 0 0 0 0 0 0 -0.0400432 -0.0436127 -0.0445815 -0.0449342 -0.0451957 -0.0453829 -0.0454774 -0.0454449 -0.0452785 -0.0450225 -0.0447661 -0.044572 -0.0444873 -0.0444966 -0.04456 -0.0446208 -0.0446353 -0.0445809 -0.0444243 -0.0441059 -0.0434152 -0.0419266 -0.0397426 -0.0368931 -0.032454 -0.0267345 -0.0196931 -0.0111644 -8.67362e-19 
0.02 0.02 0.02 0.02 0.02 0.02 0.02 0.02 0.02 0.02 0.02 0.02 0.02 0.02 0.02 0.02 0.02 0.02 0.02 0.02 0.02 0.02 0.02 0.02 0.02 0.02 0.02 0.02 0.02 0.02 0.02 0.02 0.02 0.02 0.02 0.02 0.02 0.02 0.02 0.0199999 0.0199999 0.0199999 0.0199999 0.0199998 0.0199998 0.0199998 0.0199997 0.0199997 0.0199996 0.0199995 0.0199994 0.0199993 0.0199992 0.0199991 0.0199989 0.0199987 0.0199985 0.0199983 0.019998 0.0199978 0.0199974 0.0199971 0.0199967 0.0199963 0.0199958 0.0199952 0.0199946 0.019994 0.0199933 0.0199925 0.0199916 0.0199907 0.0199896 0.0199885 0.0199873 0.0199859 0.0199845 0.0199829 0.0199812 0.0199793 0.0199772 0.019975 0.0199726 0.01997 0.0199671 0.019964 0.0199607 0.019957 0.0199531 0.0199488 0.0199442 0.0199392 0.0199338 0.0199279 0.0199215 0.0199146 0.0199072 0.0198991 0.0198904 0.0198811 0.0198709 0.01986 0.0198482 0.0198355 0.0198219 0.0198073 0.0197916 0.0197748 0.0197568 0.0197376 0.0197173 0.0196957 0.0196729 0.0196489 0.0196238 0.0195976 0.0195704 0.0195424 0.0195137 0.0194844 0.0194547 0.0194249 0.0193953 0.0193664 0.0193387 0.0193126 0.0192885 0.0192669 0.0192482 0.0192328 0.0192211 0.0192134 0.0192098 0.0192108 0.0192165 0.0192269 0.0192422 0.0192623 0.0192871 0.0193166 0.0193506 0.0193887 0.0194306 0.019476 0.0195245 0.0195756 0.0196287 0.0196834 0.019739 0.0197951 0.019851 0.0199061 0.0199598 0.0200112 0.0200596 0.020104 0.0201433 0.0201762 0.0202012 0.0202163 0.0202193 0.0202078 0.0201788 0.0201294 0.0200565 0.0199569 0.0198276 0.0196661 0.0194705 0.0192404 0.018977 0.0186833 0.018363 0.0180202 0.017658 0.0172746 0.0168621 0.0164062 0.0158996 0.0153427 0.01474 0.0140949 0.0134092 0.0126838 0.0119192 0.0111146 0.010267 0.00936608 0.00839775 0.00734579 0.00619998 0.00495558 0.00360375 0.00213814 0.000550488 -0.00116546 -0.0030229 -0.00501002 -0.00713371 -0.00936199 -0.0116878 -0.0141023 -0.0167403 -0.0193698 -0.0220579 -0.0246224 -0.0271728 -0.0300652 -0.0330493 -0.0359323 -0.0380603 -0.0401566 -0.0415245 -0.0447565 -0.0492846 -0.0514326 -0.0525302 -0.0532748 -0.0535256 -0.0555601 -0.064064 -0.0615799 0 0 0 0 0 0 0 0 0 0 0 0 0 0 0 0 0 0 0 0 0 0 0 0 0 0 0 0 0 0 0 0 0 0 0 0 0 0 0 0 0 0 0 0 0 0 0 0 0 0 0 0 0 0 0 0 0 0 0 0 0 0 0 0 0 0 0 0 0 0 0 0 0 0 0 0 0 0 0 0 0 0 0 0 0 0 0 0 0 0 0 0 0 0 0 0 0 0 0 0 0 0 0 0 0 0 0 0 0 0 0 0 0 0 0 0 0 0 0 0 0 0 0 0 0 0 0 0 0 0 0 0 0 0 0 0 0 0 0 0 0 0 0 0 0 0 0 0 0 0 0 0 0 0 0 0 0 0 0 0 0 0 0 0 0 0 0 0 0 0 0 0 0 0 0 0 0 0 0 0 0 0 0 0 0 0 0 0 0 0 -0.0512906 -0.0545325 -0.0551568 -0.0551628 -0.0549152 -0.0545813 -0.0542315 -0.0538892 -0.0535634 -0.0532611 -0.0529858 -0.0527389 -0.0525217 -0.0523348 -0.0521785 -0.0520526 -0.0519566 -0.0518897 -0.0518502 -0.051836 -0.0518442 -0.0518719 -0.0519157 -0.0519731 -0.0520424 -0.052123 -0.0522153 -0.0523206 -0.0524401 -0.0525752 -0.0527267 -0.0528945 -0.0530771 -0.0532722 -0.0534778 -0.0536926 -0.0539139 -0.0541361 -0.0543486 -0.0545375 -0.0546895 -0.0547935 -0.0548405 -0.0548232 -0.0547372 -0.0545853 -0.054376 -0.0541223 -0.0538382 -0.053535 -0.0532256 -0.0529261 -0.0526569 -0.0524359 -0.0522721 -0.0521642 -0.0521018 -0.0520735 -0.0520682 -0.0520778 -0.0520963 -0.0521191 -0.0521432 -0.0521667 -0.0521887 -0.0522088 -0.0522264 -0.0522407 -0.052251 -0.0522562 -0.0522557 -0.0522497 -0.0522402 -0.0522314 -0.0522321 -0.0522501 -0.0523036 -0.0524134 -0.0526032 -0.0529657 -0.0536832 -0.0556648 -0.0582139 -0.065129 -0.0588409 0 0 0 0 0 0 0 0 0 0 0 0 0 0 0 0 0 0 0 0 0 0 0 0 0 0 0 0 0 0 0 0 0 0 0 0 0 0 0 0 0 0 0 0 0 0 0 0 0 0 0 -0.0500414 -0.052626 -0.0533778 -0.0536096 -0.0535819 -0.0534372 -0.0532226 -0.0529734 -0.0527055 -0.052428 -0.0521479 -0.05187 -0.0515974 -0.0513315 -0.0510689 -0.0507872 -0.050435 -0.0499815 -0.0496393 -0.0493472 -0.0490829 -0.0488377 -0.0486073 -0.0483893 -0.0481821 -0.0479844 -0.0477952 -0.0476135 -0.0474383 -0.047269 -0.0471054 -0.0469477 -0.0467967 -0.0466539 -0.0465209 -0.0463994 -0.0462902 -0.0461917 -0.0461004 -0.0460169 -0.0459478 -0.0458459 -0.0455262 -0.0447399 -0.0441131 -0.0442894 -0.0446979 -0.0449789 -0.045205 -0.0453778 -0.0454657 -0.0454137 -0.0452625 -0.0450161 -0.0447828 -0.0445951 -0.0445071 -0.044511 -0.0445619 -0.0446245 -0.0446386 -0.0445875 -0.0444254 -0.0440632 -0.0433239 -0.0419791 -0.0399357 -0.0370109 -0.0328389 -0.0274478 -0.0207124 -0.0120241 -2.1684e-18 
0.02 0.02 0.02 0.02 0.02 0.02 0.02 0.02 0.02 0.02 0.02 0.02 0.02 0.02 0.02 0.02 0.02 0.02 0.02 0.02 0.02 0.02 0.02 0.02 0.02 0.02 0.02 0.02 0.02 0.02 0.02 0.02 0.02 0.02 0.02 0.02 0.02 0.02 0.0199999 0.0199999 0.0199999 0.0199999 0.0199999 0.0199998 0.0199998 0.0199998 0.0199997 0.0199996 0.0199996 0.0199995 0.0199994 0.0199993 0.0199992 0.019999 0.0199989 0.0199987 0.0199985 0.0199983 0.019998 0.0199977 0.0199974 0.0199971 0.0199967 0.0199962 0.0199958 0.0199952 0.0199946 0.019994 0.0199933 0.0199925 0.0199916 0.0199907 0.0199897 0.0199886 0.0199874 0.019986 0.0199846 0.019983 0.0199813 0.0199795 0.0199774 0.0199753 0.0199729 0.0199703 0.0199675 0.0199644 0.0199611 0.0199575 0.0199537 0.0199494 0.0199449 0.0199399 0.0199346 0.0199287 0.0199224 0.0199156 0.0199083 0.0199003 0.0198917 0.0198824 0.0198723 0.0198615 0.0198498 0.0198372 0.0198237 0.0198091 0.0197935 0.0197768 0.0197589 0.0197398 0.0197195 0.019698 0.0196753 0.0196513 0.0196262 0.0196001 0.0195729 0.019545 0.0195163 0.019487 0.0194573 0.0194275 0.0193979 0.0193688 0.0193408 0.0193142 0.0192895 0.0192672 0.0192477 0.0192314 0.0192187 0.0192098 0.019205 0.0192047 0.0192089 0.0192178 0.0192314 0.0192497 0.0192727 0.0193002 0.0193321 0.019368 0.0194076 0.0194506 0.0194964 0.0195448 0.019595 0.0196467 0.0196992 0.0197519 0.0198043 0.0198557 0.0199054 0.0199529 0.0199972 0.0200374 0.0200727 0.0201016 0.0201227 0.0201344 0.0201344 0.0201204 0.0200899 0.0200399 0.0199675 0.0198697 0.0197439 0.0195877 0.0193996 0.0191793 0.0189284 0.0186499 0.0183471 0.0180215 0.0176719 0.0172942 0.0168807 0.0164246 0.0159205 0.0153676 0.0147676 0.0141225 0.0134338 0.0127028 0.0119296 0.0111113 0.0102421 0.00931345 0.00831339 0.00723158 0.00605826 0.00478623 0.00340896 0.00191728 0.000306337 -0.0014292 -0.00329405 -0.00529573 -0.0074045 -0.00963558 -0.0119785 -0.0144209 -0.0169335 -0.0195629 -0.0221774 -0.0248079 -0.0274657 -0.0300944 -0.0330401 -0.0355659 -0.0378302 -0.0401968 -0.0423612 -0.0446095 -0.0481399 -0.0500703 -0.0515656 -0.0525467 -0.0535609 -0.0554123 -0.0589633 -0.0614128 -0.061847 -0.0623747 -0.0623443 -0.0614903 -0.0610131 -0.0609153 -0.0612538 -0.0620815 -0.0643191 -0.0762438 0 0 0 0 0 0 0 0 0 0 0 0 0 0 0 0 0 0 0 0 0 0 0 0 0 0 0 0 0 0 0 0 0 0 0 0 0 0 0 0 0 0 0 0 0 0 0 0 0 0 0 0 0 0 0 0 0 0 0 0 0 0 0 0 0 0 0 0 0 0 0 0 0 0 0 0 0 0 0 0 0 0 0 0 0 0 0 0 0 0 0 0 0 0 0 0 0 0 0 0 0 0 0 0 0 0 0 0 0 0 0 0 0 0 0 0 0 0 0 0 0 0 0 0 0 0 0 0 0 0 0 0 0 0 0 0 0 0 0 0 0 0 0 0 0 0 0 0 0 0 0 0 0 0 0 0 0 0 0 0 0 0 0 0 0 0 0 0 0 0 0 -0.0575934 -0.0612091 -0.0618124 -0.0610138 -0.0600629 -0.0595258 -0.0589792 -0.0580827 -0.0566043 -0.0554502 -0.0552941 -0.0553366 -0.0552199 -0.0549481 -0.0546115 -0.0542602 -0.0539177 -0.0535907 -0.0532872 -0.0530106 -0.0527625 -0.052544 -0.0523557 -0.0521976 -0.0520698 -0.0519714 -0.0519016 -0.0518588 -0.0518408 -0.0518449 -0.0518683 -0.0519081 -0.0519619 -0.0520282 -0.0521067 -0.0521977 -0.0523022 -0.0524214 -0.0525564 -0.0527078 -0.0528754 -0.0530576 -0.0532523 -0.0534572 -0.0536707 -0.0538906 -0.0541103 -0.0543188 -0.0545026 -0.0546488 -0.0547487 -0.0547948 -0.0547805 -0.0547008 -0.0545559 -0.0543518 -0.0541029 -0.0538219 -0.0535238 -0.0532213 -0.0529307 -0.0526685 -0.052452 -0.0522886 -0.0521793 -0.0521156 -0.0520854 -0.0520791 -0.0520871 -0.0521041 -0.052125 -0.0521471 -0.0521683 -0.0521876 -0.0522046 -0.0522187 -0.0522297 -0.0522367 -0.0522393 -0.0522369 -0.0522299 -0.0522206 -0.0522137 -0.0522194 -0.0522511 -0.0523302 -0.0525111 -0.0528025 -0.0533438 -0.0540942 -0.0556323 -0.0571117 -0.058464 -0.0579531 -0.0567609 -0.0567529 -0.057018 -0.057332 -0.0576438 -0.0579257 -0.0581609 -0.0583354 -0.0584465 -0.0584897 -0.0585102 -0.0586429 -0.0590029 -0.0593956 -0.0597936 -0.0601845 -0.060558 -0.060905 -0.0612177 -0.0614901 -0.0617178 -0.0618985 -0.0620318 -0.0621186 -0.0621615 -0.0621639 -0.06213 -0.0620642 -0.0619713 -0.0618555 -0.0617208 -0.0615709 -0.0614084 -0.0612355 -0.0610534 -0.0608616 -0.0606561 -0.0604245 -0.0601354 -0.0596634 -0.0588867 -0.058246 -0.0577638 -0.057369 -0.0570462 -0.0567859 -0.056571 -0.0563383 -0.0558949 -0.0549839 -0.0534417 -0.0528749 -0.0531411 -0.0535056 -0.0536448 -0.0535991 -0.0534564 -0.0532452 -0.0529979 -0.0527321 -0.0524559 -0.052177 -0.0518999 -0.0516273 -0.0513584 -0.0510842 -0.0507867 -0.0504468 -0.0500792 -0.0497481 -0.0494502 -0.0491769 -0.0489222 -0.0486824 -0.0484552 -0.0482391 -0.0480329 -0.0478358 -0.047647 -0.047466 -0.0472924 -0.0471262 -0.0469678 -0.0468181 -0.0466784 -0.04655 -0.0464343 -0.0463314 -0.0462393 -0.046153 -0.0460606 -0.045927 -0.0456697 -0.0452306 -0.0446909 -0.0445141 -0.0446513 -0.044872 -0.0451207 -0.0453155 -0.0454339 -0.0454737 -0.0453686 -0.0451951 -0.0449425 -0.04473 -0.044566 -0.0444909 -0.0445065 -0.0445508 -0.0446091 -0.0446154 -0.0445523 -0.0443597 -0.0439418 -0.0431555 -0.0418363 -0.0398383 -0.0369673 -0.0330226 -0.027919 -0.0213804 -0.0125754 -1.51788e-18 