# vtk DataFile Version 2.0
iteration 702
ASCII

DATASET STRUCTURED_POINTS
DIMENSIONS 621 64 1
ORIGIN 0 0 0
SPACING 0.00161031 0.00161031 0.00161031

POINT_DATA 39744
SCALARS P float 1
LOOKUP_TABLE default
0 0 0 0 0 0 0 0 0 0 0 0 0 0 0 0 0 0 0 0 0 0 0 0 0 0 0 0 0 0 0 0 0 0 0 0 0 0 0 0 0 0 0 0 0 0 0 0 0 0 0 0 0 0 0 0 0 0 0 0 0 0 0 0 0 0 0 0 0 0 0 0 0 0 0 0 0 0 0 0 0 0 0 0 0 0 0 0 0 0 0 0 0 0 0 0 0 0 0 0 0 0 0 0 0 0 0 0 0 0 0 0 0 0 0 0 0 0 0 0 0 0 0 0 0 0 0 0 0 0 0 0 0 0 0 0 0 0 0 0 0 0 0 0 0 0 0 0 0 0 0 0 0 0 0 0 0 0 0 0 0 0 0 0 0 0 0 0 0 0 0 0 0 0 0 0 0 0 0 0 0 0 0 0 0 0 0 0 0 0 0 0 0 0 0 0 0 0 0 0 0 0 0 0 0 0 0 0 0 0 0 0 0 0 0 0 0 0 0 0 0 0 0 0 0 0 0 0 0 0 0 0 0 0 0 0 0 0 0 0 0 0 0 0 0 0 0 0 0 0 0 0 0 0 0 0 0 0 0 0 0 0 0 0 0 0 0 0 0 0 0 0 0 0 0 0 0 0 0 0 0 0 0 0 0 0 0 0 0 0 0 0 0 0 0 0 0 0 0 0 0 0 0 0 0 0 0 0 0 0 0 0 0 0 0 0 0 0 0 0 0 0 0 0 0 0 0 0 0 0 0 0 0 0 0 0 0 0 0 0 0 0 0 0 0 0 0 0 0 0 0 0 0 0 0 0 0 0 0 0 0 0 0 0 0 0 0 0 0 0 0 0 0 0 0 0 0 0 0 0 0 0 0 0 0 0 0 0 0 0 0 0 0 0 0 0 0 0 0 0 0 0 0 0 0 0 0 0 0 0 0 0 0 0 0 0 0 0 0 0 0 0 0 0 0 0 0 0 0 0 0 0 0 0 0 0 0 0 0 0 0 0 0 0 0 0 0 0 0 0 0 0 0 0 0 0 0 0 0 0 0 0 0 0 0 0 0 0 0 0 0 0 0 0 0 0 0 0 0 0 0 0 0 0 0 0 0 0 0 0 0 0 0 0 0 0 0 0 0 0 0 0 0 0 0 0 0 0 0 0 0 0 0 0 0 0 0 0 0 0 0 0 0 0 0 0 0 0 0 0 0 0 0 0 0 0 0 0 0 0 0 0 0 0 0 0 0 0 0 0 0 0 0 0 0 0 0 0 0 0 0 0 0 0 0 0 0 0 0 0 0 0 0 0 0 0 0 0 0 0 0 0 0 0 0 0 0 0 0 0 0 0 0 0 0 0 0 0 0 0 0 0 0 0 0 0 0 0 0 0 0 0 0 0 0 0 0 0 0 0 0 
0.02 0.02 0.02 0.02 0.02 0.02 0.02 0.02 0.02 0.02 0.02 0.02 0.02 0.02 0.02 0.02 0.0199999 0.0199999 0.0199999 0.0199999 0.0199999 0.0199999 0.0199999 0.0199998 0.0199998 0.0199998 0.0199997 0.0199997 0.0199997 0.0199996 0.0199996 0.0199995 0.0199995 0.0199995 0.0199994 0.0199994 0.0199993 0.0199993 0.0199993 0.0199993 0.0199993 0.0199993 0.0199993 0.0199994 0.0199995 0.0199996 0.0199997 0.0199999 0.0200002 0.0200004 0.0200008 0.0200012 0.0200016 0.0200021 0.0200027 0.0200033 0.020004 0.0200047 0.0200055 0.0200063 0.0200072 0.0200081 0.020009 0.0200099 0.0200109 0.0200118 0.0200127 0.0200136 0.0200144 0.0200151 0.0200157 0.0200161 0.0200164 0.0200164 0.0200163 0.0200158 0.0200151 0.020014 0.0200125 0.0200107 0.0200084 0.0200056 0.0200023 0.0199986 0.0199943 0.0199896 0.0199843 0.0199786 0.0199726 0.0199662 0.0199596 0.0199529 0.0199464 0.0199402 0.0199347 0.0199302 0.0199266 0.0199229 0.0199218 0.0199235 0.0199296 0.0199406 0.019958 0.0199828 0.0200161 0.0200589 0.0201119 0.0201761 0.0202518 0.020339 0.0204372 0.0205454 0.0206621 0.0207848 0.0209107 0.0210364 0.0211577 0.0212705 0.02137 0.0214517 0.0215112 0.0215442 0.021547 0.021516 0.021448 0.0213398 0.0211886 0.0209914 0.0207454 0.0204479 0.0200966 0.0196889 0.0192153 0.0186588 0.0180438 0.0173665 0.0166265 0.0158245 0.0149574 0.0140271 0.0130808 0.012309 0.0124945 0.0106923 0 0 0 0 0 0 0 0 0 0 0 0 0 0 0 0 0 0 0 0 0 0 0 0 0 0 0 0 0 0 0 0 0 0 0 0 0 0 0 0 0 0 0 0 0 0 0 0 0 0 0 0 0 0 0 0 0 0 0 0 0 0 0 0 0 0 0 0 0 0 0 0 0 0 0 0 0 0 0 0 0 0 0 0 0 0 0 0 0 0 0 0 0 0 0 0 0 0 0 0 0 0 0 0 0 0 0 0 0 0 0 0 0 0 0 0 0 0 0 0 0 0 0 0 0 0 0 0 0 0 0 0 0 0 0 0 0 0 0 0 0 0 0 0 0 0 0 0 0 0 0 0 0 0 0 0 0 0 0 0 0 0 0 0 0 0 0 0 0 0 0 0 0 0 0 0 0 0 0 0 0 0 0 0 0 0 0 0 0 0 0 0 0 0 0 0 0 0 0 0 0 0 0 0 0 0 0 0 0 0 0 0 0 0 0 0 0 0 0 0 0 0 0 0 0 0 0 0 0 0 0 0 0 0 0 0 0 0 0 0 0 0 0 0 0 0 0 0 0 0 0 0 0 0 0 0 0 0 0 0 0 0 0 0 0 0 0 0 0 0 0 0 0 0 0 0 0 0 0 0 0 0 0 0 0 0 0 0 0 0 0 0 0 0 0 0 0 0 0 0 0 0 0 0 0 0 0 0 0 0 0 0 0 0 0 0 0 0 0 0 0 0 0 0 0 0 0 0 0 0 0 0 0 0 0 0 0 0 0 0 0 0 0 0 0 0 0 0 0 0 0 0 0 0 0 0 0 0 0 0 0 0 0 0 0 0 0 0 0 0 0 0 0 0 0 0 0 0 0 0 0 0 0 0 0 0 0 0 0 0 0 0 0 0 0 0 0 0 0 0 0 0 0 0 0 0 0 0 0 0 0 0 0 0 0 0 0 0 0 0 0 0 0 0 0 0 0 0 0 0 0 0 0 0 0 0 0 0 0 0 0 0 0 0 0 0 0 0 0 0 0 0 0 0 0 0 0 0 0 0 0 0 0 0 0 0 0 0 0 0 0 0 0 0 0 0 0 
0.02 0.02 0.02 0.02 0.02 0.02 0.02 0.02 0.02 0.02 0.02 0.02 0.02 0.02 0.02 0.02 0.0199999 0.0199999 0.0199999 0.0199999 0.0199999 0.0199999 0.0199999 0.0199998 0.0199998 0.0199998 0.0199997 0.0199997 0.0199997 0.0199996 0.0199996 0.0199996 0.0199995 0.0199995 0.0199994 0.0199994 0.0199993 0.0199993 0.0199993 0.0199993 0.0199993 0.0199993 0.0199993 0.0199994 0.0199995 0.0199996 0.0199997 0.0199999 0.0200002 0.0200004 0.0200008 0.0200011 0.0200016 0.0200021 0.0200026 0.0200032 0.0200039 0.0200046 0.0200054 0.0200062 0.0200071 0.0200079 0.0200089 0.0200098 0.0200107 0.0200117 0.0200126 0.0200134 0.0200142 0.0200149 0.0200155 0.0200159 0.0200162 0.0200163 0.0200161 0.0200157 0.0200149 0.0200139 0.0200124 0.0200106 0.0200084 0.0200056 0.0200024 0.0199987 0.0199945 0.0199899 0.0199847 0.0199791 0.0199731 0.0199668 0.0199603 0.0199537 0.0199473 0.0199412 0.0199358 0.0199314 0.0199283 0.0199269 0.0199267 0.0199294 0.019936 0.0199472 0.0199646 0.0199891 0.0200218 0.0200639 0.0201162 0.0201793 0.0202538 0.0203395 0.0204361 0.0205426 0.0206572 0.0207779 0.0209016 0.0210251 0.0211444 0.0212551 0.021353 0.0214333 0.0214918 0.0215244 0.0215272 0.0214968 0.0214299 0.0213234 0.0211743 0.0209798 0.0207369 0.0204429 0.020095 0.0196898 0.0192204 0.0186782 0.0180694 0.0173978 0.0166635 0.0158697 0.0150127 0.0141057 0.0131942 0.012416 0.0117651 0.0106801 0.00934478 0.00801906 0.00656414 0.00493581 0.00429926 0 0 0 0 0 0 0 0 0 0 0 0 0 0 0 0 0 0 0 0 0 0 0 0 0 0 0 0 0 0 0 0 0 0 0 0 0 0 0 0 0 0 0 0 0 0 0 0 0 0 0 0 0 0 0 0 0 0 0 0 0 0 0 0 0 0 0 0 0 0 0 0 0 0 0 0 0 0 0 0 0 0 0 0 0 0 0 0 0 0 0 0 0 0 0 0 0 0 0 0 0 0 0 0 0 0 0 0 0 0 0 0 0 0 0 0 0 0 0 0 0 0 0 0 0 0 0 0 0 0 0 0 0 0 0 0 0 0 0 0 0 0 0 0 0 0 0 0 0 0 0 0 0 0 0 0 0 0 0 0 0 0 0 0 0 0 0 0 0 0 0 0 0 0 0 0 0 0 0 0 0 0 0 0 0 0 0 0 0 0 0 0 0 0 0 0 0 0 0 0 0 0 0 0 0 0 0 0 0 0 0 0 0 0 0 0 0 0 0 0 0 0 0 0 0 0 0 0 0 0 0 0 0 0 0 0 0 0 0 0 0 0 0 0 0 0 0 0 0 0 0 0 0 0 0 0 0 0 0 0 0 0 0 0 0 0 0 0 0 0 0 0 0 0 0 0 0 0 0 0 0 0 0 0 0 0 0 0 0 0 0 0 0 0 0 0 0 0 0 0 0 0 0 0 0 0 0 0 0 0 0 0 0 0 0 0 0 0 0 0 0 0 0 0 0 0 0 0 0 0 0 0 0 0 0 0 0 0 0 0 0 0 0 0 0 0 0 0 0 0 0 0 0 0 0 0 0 0 0 0 0 0 0 0 0 0 0 0 0 0 0 0 0 0 0 0 0 0 0 0 0 0 0 0 0 0 0 0 0 0 0 0 0 0 0 0 0 0 0 0 0 0 0 0 0 0 0 0 0 0 0 0 0 0 0 0 0 0 0 0 0 0 0 0 0 0 0 0 0 0 0 0 0 0 0 0 0 0 0 0 0 0 0 0 0 0 0 0 0 0 0 0 0 0 0 0 0 0 0 0 0 0 0 0 0 0 0 0 0 0 0 0 
0.02 0.02 0.02 0.02 0.02 0.02 0.02 0.02 0.02 0.02 0.02 0.02 0.02 0.02 0.02 0.02 0.0199999 0.0199999 0.0199999 0.0199999 0.0199999 0.0199999 0.0199999 0.0199998 0.0199998 0.0199998 0.0199998 0.0199997 0.0199997 0.0199996 0.0199996 0.0199996 0.0199995 0.0199995 0.0199994 0.0199994 0.0199994 0.0199993 0.0199993 0.0199993 0.0199993 0.0199993 0.0199993 0.0199994 0.0199995 0.0199996 0.0199997 0.0199999 0.0200001 0.0200004 0.0200007 0.0200011 0.0200015 0.020002 0.0200026 0.0200032 0.0200038 0.0200045 0.0200053 0.0200061 0.0200069 0.0200078 0.0200087 0.0200096 0.0200106 0.0200115 0.0200124 0.0200132 0.020014 0.0200146 0.0200152 0.0200156 0.0200159 0.0200159 0.0200158 0.0200153 0.0200146 0.0200135 0.0200121 0.0200103 0.020008 0.0200053 0.0200021 0.0199984 0.0199943 0.0199896 0.0199845 0.0199789 0.019973 0.0199668 0.0199603 0.0199538 0.0199474 0.0199414 0.0199361 0.0199317 0.0199287 0.0199276 0.0199289 0.0199328 0.0199399 0.0199519 0.0199694 0.0199938 0.0200263 0.0200678 0.0201193 0.0201816 0.0202551 0.0203397 0.020435 0.02054 0.0206531 0.020772 0.020894 0.0210157 0.0211332 0.0212423 0.0213386 0.0214176 0.0214752 0.0215072 0.02151 0.0214801 0.0214144 0.0213099 0.0211637 0.020973 0.0207347 0.0204461 0.020104 0.0197042 0.0192412 0.01871 0.018111 0.0174481 0.016724 0.0159445 0.0151111 0.0142375 0.0133711 0.0125402 0.0117268 0.010628 0.0093326 0.00798907 0.00655105 0.00492881 0.00348375 0.00164423 -0.000868807 -0.00281942 0 0 0 0 0 0 0 0 0 0 0 0 0 0 0 0 0 0 0 0 0 0 0 0 0 0 0 0 0 0 0 0 0 0 0 0 0 0 0 0 0 0 0 0 0 0 0 0 0 0 0 0 0 0 0 0 0 0 0 0 0 0 0 0 0 0 0 0 0 0 0 0 0 0 0 0 0 0 0 0 0 0 0 0 0 0 0 0 0 0 0 0 0 0 0 0 0 0 0 0 0 0 0 0 0 0 0 0 0 0 0 0 0 0 0 0 0 0 0 0 0 0 0 0 0 0 0 0 0 0 0 0 0 0 0 0 0 0 0 0 0 0 0 0 0 0 0 0 0 0 0 0 0 0 0 0 0 0 0 0 0 0 0 0 0 0 0 0 0 0 0 0 0 0 0 0 0 0 0 0 0 0 0 0 0 0 0 0 0 0 0 0 0 0 0 0 0 0 0 0 0 0 0 0 0 0 0 0 0 0 0 0 0 0 0 0 0 0 0 0 0 0 0 0 0 0 0 0 0 0 0 0 0 0 0 0 0 0 0 0 0 0 0 0 0 0 0 0 0 0 0 0 0 0 0 0 0 0 0 0 0 0 0 0 0 0 0 0 0 0 0 0 0 0 0 0 0 0 0 0 0 0 0 0 0 0 0 0 0 0 0 0 0 0 0 0 0 0 0 0 0 0 0 0 0 0 0 0 0 0 0 0 0 0 0 0 0 0 0 0 0 0 0 0 0 0 0 0 0 0 0 0 0 0 0 0 0 0 0 0 0 0 0 0 0 0 0 0 0 0 0 0 0 0 0 0 0 0 0 0 0 0 0 0 0 0 0 0 0 0 0 0 0 0 0 0 0 0 0 0 0 0 0 0 0 0 0 0 0 0 0 0 0 0 0 0 0 0 0 0 0 0 0 0 0 0 0 0 0 0 0 0 0 0 0 0 0 0 0 0 0 0 0 0 0 0 0 0 0 0 0 0 0 0 0 0 0 0 0 0 0 0 0 0 0 0 0 0 0 0 0 0 0 0 0 0 0 0 0 0 0 0 0 0 0 0 0 0 2.71051e-20 
0.02 0.02 0.02 0.02 0.02 0.02 0.02 0.02 0.02 0.02 0.02 0.02 0.02 0.02 0.02 0.02 0.0199999 0.0199999 0.0199999 0.0199999 0.0199999 0.0199999 0.0199999 0.0199998 0.0199998 0.0199998 0.0199998 0.0199997 0.0199997 0.0199996 0.0199996 0.0199996 0.0199995 0.0199995 0.0199994 0.0199994 0.0199994 0.0199993 0.0199993 0.0199993 0.0199993 0.0199993 0.0199993 0.0199994 0.0199995 0.0199996 0.0199997 0.0199999 0.0200001 0.0200004 0.0200007 0.020001 0.0200015 0.0200019 0.0200025 0.020003 0.0200037 0.0200044 0.0200051 0.0200059 0.0200067 0.0200075 0.0200084 0.0200093 0.0200102 0.020011 0.0200119 0.0200127 0.0200134 0.020014 0.0200146 0.020015 0.0200152 0.0200152 0.020015 0.0200145 0.0200138 0.0200127 0.0200112 0.0200094 0.0200071 0.0200044 0.0200013 0.0199976 0.0199935 0.0199889 0.0199838 0.0199783 0.0199724 0.0199663 0.0199599 0.0199535 0.0199473 0.0199414 0.0199361 0.0199319 0.019929 0.019928 0.0199295 0.0199341 0.0199424 0.019955 0.0199731 0.0199979 0.0200303 0.0200716 0.0201227 0.0201843 0.0202568 0.0203402 0.0204342 0.0205378 0.0206493 0.0207665 0.0208868 0.0210068 0.0211226 0.0212303 0.0213253 0.0214035 0.0214606 0.0214927 0.0214961 0.0214677 0.0214042 0.021303 0.0211611 0.0209757 0.0207439 0.0204625 0.0201279 0.0197358 0.0192815 0.0187615 0.0181755 0.0175264 0.0168186 0.016061 0.0152622 0.0144222 0.013575 0.0127108 0.0117861 0.0106788 0.00941052 0.00804947 0.0066052 0.00506967 0.00333499 0.00142436 -0.000652642 -0.00337587 -0.00749048 -0.0112542 0 0 0 0 0 0 0 0 0 0 0 0 0 0 0 0 0 0 0 0 0 0 0 0 0 0 0 0 0 0 0 0 0 0 0 0 0 0 0 0 0 0 0 0 0 0 0 0 0 0 0 0 0 0 0 0 0 0 0 0 0 0 0 0 0 0 0 0 0 0 0 0 0 0 0 0 0 0 0 0 0 0 0 0 0 0 0 0 0 0 0 0 0 0 0 0 0 0 0 0 0 0 0 0 0 0 0 0 0 0 0 0 0 0 0 0 0 0 0 0 0 0 0 0 0 0 0 0 0 0 0 0 0 0 0 0 0 0 0 0 0 0 0 0 0 0 0 0 0 0 0 0 0 0 0 0 0 0 0 0 0 0 0 0 0 0 0 0 0 0 0 0 0 0 0 0 0 0 0 0 0 0 0 0 0 0 0 0 0 0 0 0 0 0 0 0 0 0 0 0 0 0 0 0 0 0 0 0 0 0 0 0 0 0 0 0 0 0 0 0 0 0 0 0 0 0 0 0 0 0 0 0 0 0 0 0 0 0 0 0 0 0 0 0 0 0 0 0 0 0 0 0 0 0 0 0 0 0 0 0 0 0 0 0 0 0 0 0 0 0 0 0 0 0 0 0 0 0 0 0 0 0 0 0 0 0 0 0 0 0 0 0 0 0 0 0 0 0 0 0 0 0 0 0 0 0 0 0 0 0 0 0 0 0 0 0 0 0 0 0 0 0 0 0 0 0 0 0 0 0 0 0 0 0 0 0 0 0 0 0 0 0 0 0 0 0 0 0 0 0 0 0 0 0 0 0 0 0 0 0 0 0 0 0 0 0 0 0 0 0 0 0 0 0 0 0 0 0 0 0 0 0 0 0 0 0 0 0 0 0 0 0 0 0 0 0 0 0 0 0 0 0 0 0 0 0 0 0 0 0 0 0 0 0 0 0 0 0 0 0 0 0 0 0 0 0 0 0 0 0 0 0 0 0 0 0 0 0 0 0 0 0 0 0 0 0 0 0 0 0 0 0 0 0 0 0 0 0 0 0 0 0 0 0 0 -0.00407799 -3.25261e-19 
0.02 0.02 0.02 0.02 0.02 0.02 0.02 0.02 0.02 0.02 0.02 0.02 0.02 0.02 0.02 0.02 0.0199999 0.0199999 0.0199999 0.0199999 0.0199999 0.0199999 0.0199999 0.0199998 0.0199998 0.0199998 0.0199998 0.0199997 0.0199997 0.0199997 0.0199996 0.0199996 0.0199995 0.0199995 0.0199994 0.0199994 0.0199994 0.0199993 0.0199993 0.0199993 0.0199993 0.0199993 0.0199993 0.0199994 0.0199994 0.0199995 0.0199997 0.0199998 0.02 0.0200003 0.0200006 0.0200009 0.0200013 0.0200017 0.0200022 0.0200028 0.0200034 0.020004 0.0200047 0.0200055 0.0200062 0.020007 0.0200079 0.0200087 0.0200095 0.0200103 0.0200111 0.0200118 0.0200125 0.0200131 0.0200135 0.0200139 0.020014 0.020014 0.0200137 0.0200132 0.0200124 0.0200113 0.0200098 0.0200079 0.0200057 0.020003 0.0199998 0.0199962 0.0199921 0.0199876 0.0199826 0.0199772 0.0199714 0.0199654 0.0199592 0.019953 0.0199469 0.0199412 0.0199362 0.0199321 0.0199294 0.0199286 0.0199303 0.0199351 0.0199437 0.0199571 0.0199758 0.020001 0.0200338 0.0200751 0.0201259 0.0201869 0.0202586 0.020341 0.0204337 0.0205358 0.0206456 0.0207612 0.0208798 0.0209981 0.0211125 0.0212189 0.0213132 0.021391 0.0214482 0.0214811 0.0214861 0.02146 0.0213999 0.0213031 0.0211668 0.0209882 0.0207642 0.0204913 0.0201657 0.0197831 0.0193397 0.0188329 0.018263 0.0176326 0.016947 0.0162161 0.0154509 0.0146518 0.0138078 0.0129217 0.0119296 0.010808 0.0095442 0.00816649 0.00669513 0.00509763 0.00332646 0.00134781 -0.000840029 -0.00360482 -0.00659971 -0.0116446 -0.0178329 0 0 0 0 0 0 0 0 0 0 0 0 0 0 0 0 0 0 0 0 0 0 0 0 0 0 0 0 0 0 0 0 0 0 0 0 0 0 0 0 0 0 0 0 0 0 0 0 0 0 0 0 0 0 0 0 0 0 0 0 0 0 0 0 0 0 0 0 0 0 0 0 0 0 0 0 0 0 0 0 0 0 0 0 0 0 0 0 0 0 0 0 0 0 0 0 0 0 0 0 0 0 0 0 0 0 0 0 0 0 0 0 0 0 0 0 0 0 0 0 0 0 0 0 0 0 0 0 0 0 0 0 0 0 0 0 0 0 0 0 0 0 0 0 0 0 0 0 0 0 0 0 0 0 0 0 0 0 0 0 0 0 0 0 0 0 0 0 0 0 0 0 0 0 0 0 0 0 0 0 0 0 0 0 0 0 0 0 0 0 0 0 0 0 0 0 0 0 0 0 0 0 0 0 0 0 0 0 0 0 0 0 0 0 0 0 0 0 0 0 0 0 0 0 0 0 0 0 0 0 0 0 0 0 0 0 0 0 0 0 0 0 0 0 0 0 0 0 0 0 0 0 0 0 0 0 0 0 0 0 0 0 0 0 0 0 0 0 0 0 0 0 0 0 0 0 0 0 0 0 0 0 0 0 0 0 0 0 0 0 0 0 0 0 0 0 0 0 0 0 0 0 0 0 0 0 0 0 0 0 0 0 0 0 0 0 0 0 0 0 0 0 0 0 0 0 0 0 0 0 0 0 0 0 0 0 0 0 0 0 0 0 0 0 0 0 0 0 0 0 0 0 0 0 0 0 0 0 0 0 0 0 0 0 0 0 0 0 0 0 0 0 0 0 0 0 0 0 0 0 0 0 0 0 0 0 0 0 0 0 0 0 0 0 0 0 0 0 0 0 0 0 0 0 0 0 0 0 0 0 0 0 0 0 0 0 0 0 0 0 0 0 0 0 0 0 0 0 0 0 0 0 0 0 0 0 0 0 0 0 0 0 0 0 0 0 0 0 0 0 0 0 0 0 0 0 0 0 0 0 0 0 0 -0.0132074 -0.0068848 -1.73472e-18 
0.02 0.02 0.02 0.02 0.02 0.02 0.02 0.02 0.02 0.02 0.02 0.02 0.02 0.02 0.02 0.02 0.02 0.0199999 0.0199999 0.0199999 0.0199999 0.0199999 0.0199999 0.0199998 0.0199998 0.0199998 0.0199998 0.0199997 0.0199997 0.0199997 0.0199996 0.0199996 0.0199995 0.0199995 0.0199994 0.0199994 0.0199994 0.0199993 0.0199993 0.0199993 0.0199992 0.0199992 0.0199993 0.0199993 0.0199994 0.0199994 0.0199996 0.0199997 0.0199999 0.0200001 0.0200004 0.0200007 0.0200011 0.0200015 0.0200019 0.0200024 0.020003 0.0200036 0.0200042 0.0200049 0.0200056 0.0200064 0.0200071 0.0200079 0.0200086 0.0200093 0.02001 0.0200107 0.0200112 0.0200117 0.0200121 0.0200123 0.0200124 0.0200123 0.0200119 0.0200113 0.0200105 0.0200093 0.0200078 0.0200059 0.0200036 0.0200009 0.0199978 0.0199942 0.0199902 0.0199857 0.0199809 0.0199756 0.01997 0.0199642 0.0199583 0.0199523 0.0199465 0.0199411 0.0199363 0.0199325 0.0199302 0.0199297 0.0199316 0.0199367 0.0199456 0.0199591 0.0199782 0.0200038 0.0200368 0.0200782 0.0201288 0.0201895 0.0202604 0.0203418 0.0204333 0.0205339 0.0206422 0.0207561 0.020873 0.0209898 0.0211028 0.0212082 0.021302 0.0213798 0.0214378 0.0214721 0.0214794 0.0214565 0.0214007 0.0213093 0.0211796 0.0210087 0.0207933 0.0205299 0.0202145 0.0198432 0.0194128 0.0189217 0.0183705 0.0177627 0.0171037 0.0164015 0.0156644 0.0148903 0.0140573 0.0131411 0.0121293 0.0109913 0.00972128 0.00832866 0.00682017 0.0051742 0.00335036 0.00130996 -0.000984994 -0.00374178 -0.00713805 -0.0116625 -0.0173567 -0.0257465 -0.0370925 0 0 0 0 0 0 0 0 0 0 0 0 0 0 0 0 0 0 0 0 0 0 0 0 0 0 0 0 0 0 0 0 0 0 0 0 0 0 0 0 0 0 0 0 0 0 0 0 0 0 0 0 0 0 0 0 0 0 0 0 0 0 0 0 0 0 0 0 0 0 0 0 0 0 0 0 0 0 0 0 0 0 0 0 0 0 0 0 0 0 0 0 0 0 0 0 0 0 0 0 0 0 0 0 0 0 0 0 0 0 0 0 0 0 0 0 0 0 0 0 0 0 0 0 0 0 0 0 0 0 0 0 0 0 0 0 0 0 0 0 0 0 0 0 0 0 0 0 0 0 0 0 0 0 0 0 0 0 0 0 0 0 0 0 0 0 0 0 0 0 0 0 0 0 0 0 0 0 0 0 0 0 0 0 0 0 0 0 0 0 0 0 0 0 0 0 0 0 0 0 0 0 0 0 0 0 0 0 0 0 0 0 0 0 0 0 0 0 0 0 0 0 0 0 0 0 0 0 0 0 0 0 0 0 0 0 0 0 0 0 0 0 0 0 0 0 0 0 0 0 0 0 0 0 0 0 0 0 0 0 0 0 0 0 0 0 0 0 0 0 0 0 0 0 0 0 0 0 0 0 0 0 0 0 0 0 0 0 0 0 0 0 0 0 0 0 0 0 0 0 0 0 0 0 0 0 0 0 0 0 0 0 0 0 0 0 0 0 0 0 0 0 0 0 0 0 0 0 0 0 0 0 0 0 0 0 0 0 0 0 0 0 0 0 0 0 0 0 0 0 0 0 0 0 0 0 0 0 0 0 0 0 0 0 0 0 0 0 0 0 0 0 0 0 0 0 0 0 0 0 0 0 0 0 0 0 0 0 0 0 0 0 0 0 0 0 0 0 0 0 0 0 0 0 0 0 0 0 0 0 0 0 0 0 0 0 0 0 0 0 0 0 0 0 0 0 0 0 0 0 0 0 0 0 0 0 0 0 0 0 0 0 0 0 0 0 0 0 0 0 0 0 0 0 0 0 0 0 -0.0301175 -0.0293222 -0.0240759 -0.0171264 -0.00930833 -1.51788e-18 
0.02 0.02 0.02 0.02 0.02 0.02 0.02 0.02 0.02 0.02 0.02 0.02 0.02 0.02 0.02 0.02 0.02 0.0199999 0.0199999 0.0199999 0.0199999 0.0199999 0.0199999 0.0199998 0.0199998 0.0199998 0.0199998 0.0199997 0.0199997 0.0199997 0.0199996 0.0199996 0.0199995 0.0199995 0.0199994 0.0199994 0.0199993 0.0199993 0.0199993 0.0199992 0.0199992 0.0199992 0.0199992 0.0199992 0.0199993 0.0199994 0.0199994 0.0199996 0.0199997 0.0199999 0.0200002 0.0200004 0.0200008 0.0200011 0.0200015 0.020002 0.0200025 0.020003 0.0200036 0.0200042 0.0200048 0.0200055 0.0200061 0.0200068 0.0200075 0.0200081 0.0200087 0.0200092 0.0200097 0.02001 0.0200103 0.0200104 0.0200104 0.0200101 0.0200097 0.020009 0.0200081 0.0200068 0.0200053 0.0200033 0.020001 0.0199983 0.0199952 0.0199917 0.0199878 0.0199835 0.0199787 0.0199737 0.0199683 0.0199628 0.0199571 0.0199514 0.019946 0.019941 0.0199366 0.0199333 0.0199314 0.0199313 0.0199336 0.0199391 0.0199483 0.0199621 0.0199814 0.0200071 0.0200402 0.0200816 0.020132 0.0201921 0.0202624 0.0203429 0.0204331 0.0205323 0.020639 0.0207512 0.0208664 0.0209816 0.0210934 0.021198 0.0212914 0.0213695 0.0214286 0.0214648 0.021475 0.021456 0.0214051 0.0213198 0.0211972 0.0210345 0.0208284 0.0205751 0.020271 0.0199125 0.0194971 0.0190238 0.0184941 0.0179116 0.0172812 0.0166073 0.0158927 0.0151313 0.0143068 0.0133898 0.0123599 0.0112085 0.00993199 0.00852482 0.00698126 0.00528033 0.00339655 0.00128202 -0.00111639 -0.00386599 -0.00737453 -0.0118136 -0.0174635 -0.0251021 -0.0372906 -0.0483412 0 0 0 0 0 0 0 0 0 0 0 0 0 0 0 0 0 0 0 0 0 0 0 0 0 0 0 0 0 0 0 0 0 0 0 0 0 0 0 0 0 0 0 0 0 0 0 0 0 0 0 0 0 0 0 0 0 0 0 0 0 0 0 0 0 0 0 0 0 0 0 0 0 0 0 0 0 0 0 0 0 0 0 0 0 0 0 0 0 0 0 0 0 0 0 0 0 0 0 0 0 0 0 0 0 0 0 0 0 0 0 0 0 0 0 0 0 0 0 0 0 0 0 0 0 0 0 0 0 0 0 0 0 0 0 0 0 0 0 0 0 0 0 0 0 0 0 0 0 0 0 0 0 0 0 0 0 0 0 0 0 0 0 0 0 0 0 0 0 0 0 0 0 0 0 0 0 0 0 0 0 0 0 0 0 0 0 0 0 0 0 0 0 0 0 0 0 0 0 0 0 0 0 0 0 0 0 0 0 0 0 0 0 0 0 0 0 -0.0415792 -0.0421333 -0.0473022 -0.0501819 -0.052513 -0.0546374 -0.0560645 -0.0572089 -0.0582487 -0.0586877 -0.0587439 -0.0581439 -0.0606113 -0.0690673 0 0 0 0 0 0 0 0 0 0 0 0 0 0 0 0 0 0 0 0 0 0 0 0 0 0 0 0 0 0 0 0 0 0 0 0 0 0 0 0 0 0 0 0 0 0 0 0 0 0 0 0 0 0 0 0 0 0 0 0 0 0 0 0 0 0 0 0 0 0 0 0 0 0 0 0 0 0 0 0 0 0 0 0 0 0 0 0 0 0 0 0 0 0 0 0 0 0 0 0 0 0 0 0 0 0 0 0 0 0 0 0 0 0 0 0 0 0 0 0 0 0 0 0 0 0 0 0 0 0 0 0 0 0 0 0 0 0 0 0 0 0 0 0 0 0 0 0 0 0 0 0 0 0 0 0 0 0 0 0 0 0 0 0 0 0 0 0 0 0 0 0 0 0 0 0 0 0 0 0 0 -0.037922 -0.0424088 -0.0441062 -0.0446447 -0.044824 -0.0448853 -0.0449037 -0.0448985 -0.0448749 -0.0448351 -0.0447805 -0.0447125 -0.0446323 -0.0445414 -0.0444412 -0.0443332 -0.0442189 -0.0440999 -0.0439776 -0.0438531 -0.0437278 -0.0436024 -0.043478 -0.0433551 -0.0432342 -0.0431159 -0.0430004 -0.0428879 -0.0427785 -0.0426723 -0.042569 -0.0424685 -0.0423702 -0.0422735 -0.0421774 -0.0420804 -0.04198 -0.0418719 -0.0417475 -0.0415833 -0.0412818 -0.0406328 -0.0397345 -0.0385615 -0.0368032 -0.0339179 -0.0303341 -0.0251396 -0.0185947 -0.0105618 -8.67362e-19 
0.02 0.02 0.02 0.02 0.02 0.02 0.02 0.02 0.02 0.02 0.02 0.02 0.02 0.02 0.02 0.02 0.02 0.0199999 0.0199999 0.0199999 0.0199999 0.0199999 0.0199999 0.0199999 0.0199998 0.0199998 0.0199998 0.0199997 0.0199997 0.0199997 0.0199996 0.0199996 0.0199995 0.0199995 0.0199994 0.0199994 0.0199993 0.0199993 0.0199992 0.0199992 0.0199992 0.0199992 0.0199992 0.0199992 0.0199992 0.0199992 0.0199993 0.0199994 0.0199995 0.0199997 0.0199999 0.0200001 0.0200004 0.0200007 0.0200011 0.0200015 0.0200019 0.0200023 0.0200028 0.0200034 0.0200039 0.0200044 0.020005 0.0200055 0.0200061 0.0200066 0.020007 0.0200074 0.0200078 0.020008 0.0200081 0.0200081 0.0200079 0.0200076 0.020007 0.0200062 0.0200052 0.0200039 0.0200022 0.0200003 0.019998 0.0199953 0.0199922 0.0199888 0.019985 0.0199808 0.0199762 0.0199714 0.0199663 0.0199611 0.0199558 0.0199505 0.0199456 0.019941 0.0199372 0.0199344 0.0199331 0.0199336 0.0199365 0.0199424 0.0199521 0.0199663 0.0199859 0.0200117 0.0200448 0.0200861 0.0201362 0.0201958 0.0202653 0.0203448 0.0204337 0.0205314 0.0206364 0.0207468 0.0208603 0.0209739 0.0210843 0.0211879 0.0212808 0.0213593 0.0214195 0.0214579 0.0214711 0.0214563 0.0214108 0.0213318 0.0212168 0.0210627 0.0208661 0.0206236 0.0203316 0.0199872 0.0195884 0.0191351 0.0186287 0.0180725 0.0174701 0.0168226 0.0161269 0.0153745 0.0145477 0.0136283 0.012598 0.0114461 0.0101645 0.00874136 0.00716371 0.00541459 0.0034658 0.00126897 -0.00123096 -0.00410395 -0.0075664 -0.0121565 -0.0177318 -0.024939 -0.0336268 -0.0468637 0 0 0 0 0 0 0 0 0 0 0 0 0 0 0 0 0 0 0 0 0 0 0 0 0 0 0 0 0 0 0 0 -0.0702536 -0.0626191 -0.0661343 -0.073133 0 0 0 0 0 0 0 0 0 0 0 0 0 0 0 0 0 0 0 0 0 0 0 0 0 0 0 0 0 0 0 0 0 -0.0529746 -0.0560623 -0.0563144 -0.0564106 -0.0637671 0 0 0 0 0 0 0 0 0 0 0 0 0 0 0 0 0 0 0 0 0 0 0 0 0 0 0 0 0 0 0 0 0 0 0 0 0 0 0 0 0 0 0 0 0 0 0 0 0 0 0 0 0 0 0 0 0 0 0 0 0 0 0 0 0 0 0 0 0 0 0 0 0 0 0 0 0 0 0 0 0 0 0 0 0 0 0 0 0 0 0 0 0 0 0 0 0 0 0 0 0 0 0 0 0 0 0 0 0 0 0 0 0 0 0 0 0 0 0 0 0 0 0 0 0 0 0 0 0 0 0 0 0 0 0 0 0 0 0 0 0 0 -0.0400958 -0.0387061 -0.0437081 -0.0470478 -0.0501723 -0.0524579 -0.0543631 -0.0558793 -0.0569272 -0.0577555 -0.0582734 -0.0587776 -0.0577458 -0.0590103 -0.0616815 -0.0606286 -0.0588274 -0.0576056 -0.0570046 -0.056601 -0.0563106 -0.0556964 -0.0548416 -0.0543401 -0.0540544 -0.0538392 -0.0536557 -0.0534587 -0.0533291 -0.0556478 0 0 0 0 0 0 0 0 0 0 0 0 -0.0546095 -0.0510467 -0.0540576 -0.0543651 -0.0567439 -0.0560086 -0.0558433 -0.0560972 -0.0559984 -0.056282 -0.0561682 -0.056159 -0.0558743 -0.0555638 -0.0551065 -0.0546367 -0.0541322 -0.0536645 -0.053217 -0.0528179 -0.0524384 -0.0520709 -0.0516684 -0.0511783 -0.0505801 -0.0500816 -0.0496979 -0.0493921 -0.0491526 -0.0489738 -0.0488519 -0.048785 -0.0487728 -0.0488169 -0.0489205 -0.0490851 -0.049293 -0.0494453 -0.0493775 -0.0492178 -0.0491093 -0.0490245 -0.0491557 -0.0501741 -0.0522109 -0.0601698 0 0 0 0 0 0 0 0 0 0 0 0 0 0 0 0 0 0 0 0 0 0 0 0 0 0 0 0 0 0 0 0 0 0 0 0 0 0 0 0 0 0 0 0 0 0 0 -0.0485422 -0.0526639 -0.0536093 -0.0537405 -0.0535335 -0.0531921 -0.0527945 -0.0523614 -0.0518896 -0.0513082 -0.0505666 -0.0498646 -0.0493561 -0.0489376 -0.0485746 -0.0482533 -0.0479657 -0.0477067 -0.0474723 -0.0472593 -0.0470652 -0.046888 -0.0467259 -0.0465778 -0.0464425 -0.0463191 -0.0462066 -0.0461042 -0.0460106 -0.0459248 -0.0458453 -0.045771 -0.0457006 -0.0456332 -0.0455682 -0.0455056 -0.0454458 -0.0453896 -0.0453383 -0.0452932 -0.0452552 -0.045225 -0.0452023 -0.0451863 -0.0451751 -0.0451664 -0.0451573 -0.0451451 -0.0451267 -0.0450991 -0.0450586 -0.0450014 -0.0449225 -0.0448169 -0.0446778 -0.0444968 -0.0442628 -0.0439526 -0.0435568 -0.0430368 -0.042543 -0.042351 -0.0431565 -0.0441359 -0.0446251 -0.0448177 -0.0448874 -0.0449086 -0.0449044 -0.0448811 -0.0448412 -0.0447863 -0.0447177 -0.0446369 -0.0445454 -0.0444446 -0.0443362 -0.0442217 -0.0441025 -0.0439802 -0.043856 -0.0437309 -0.0436059 -0.0434818 -0.0433593 -0.0432389 -0.043121 -0.0430058 -0.0428936 -0.0427845 -0.0426786 -0.0425756 -0.0424755 -0.0423777 -0.0422818 -0.042187 -0.0420916 -0.0419934 -0.0418873 -0.041761 -0.0415775 -0.0412573 -0.0406974 -0.0398702 -0.0386659 -0.0368589 -0.0341726 -0.0305604 -0.0256777 -0.0194433 -0.0113089 -6.50521e-19 
0.02 0.02 0.02 0.02 0.02 0.02 0.02 0.02 0.02 0.02 0.02 0.02 0.02 0.02 0.02 0.02 0.02 0.0199999 0.0199999 0.0199999 0.0199999 0.0199999 0.0199999 0.0199999 0.0199998 0.0199998 0.0199998 0.0199997 0.0199997 0.0199997 0.0199996 0.0199996 0.0199995 0.0199995 0.0199994 0.0199994 0.0199993 0.0199993 0.0199992 0.0199992 0.0199991 0.0199991 0.0199991 0.0199991 0.0199991 0.0199991 0.0199991 0.0199992 0.0199993 0.0199994 0.0199996 0.0199998 0.02 0.0200003 0.0200005 0.0200009 0.0200012 0.0200016 0.020002 0.0200024 0.0200028 0.0200032 0.0200037 0.0200041 0.0200045 0.0200048 0.0200052 0.0200054 0.0200056 0.0200057 0.0200056 0.0200055 0.0200052 0.0200047 0.020004 0.0200031 0.0200019 0.0200005 0.0199988 0.0199968 0.0199945 0.0199918 0.0199888 0.0199854 0.0199817 0.0199777 0.0199734 0.0199689 0.0199641 0.0199593 0.0199544 0.0199497 0.0199453 0.0199413 0.0199382 0.0199361 0.0199354 0.0199366 0.0199402 0.0199468 0.0199571 0.0199719 0.0199919 0.0200181 0.0200513 0.0200924 0.0201422 0.0202012 0.0202699 0.0203482 0.0204358 0.0205318 0.020635 0.0207435 0.020855 0.0209667 0.0210754 0.0211777 0.0212699 0.0213484 0.0214095 0.0214497 0.021466 0.0214553 0.0214151 0.0213426 0.0212352 0.0210897 0.0209031 0.0206718 0.0203928 0.0200636 0.0196828 0.0192505 0.0187683 0.0182383 0.0176621 0.0170381 0.0163604 0.0156174 0.0147955 0.0138771 0.0128477 0.0116949 0.0104071 0.00897034 0.0073666 0.00557447 0.00356211 0.00127891 -0.0013458 -0.00436748 -0.00790986 -0.0123964 -0.0179941 -0.0248746 -0.0331882 -0.0421612 -0.0495467 0 0 0 0 0 0 0 0 0 0 0 0 0 0 0 0 0 0 0 0 -0.0577586 -0.0576757 -0.0622982 -0.0667523 -0.0696228 -0.0711834 -0.0719544 -0.0720044 -0.0716685 -0.071153 -0.0703735 -0.0692014 -0.0672195 -0.0676249 -0.068999 -0.0699219 -0.0690739 -0.0674876 -0.0668723 -0.0665663 -0.0653092 -0.0650577 -0.0749291 0 0 0 0 0 0 0 0 0 0 0 0 0 0 0 0 0 0 0 -0.0547514 -0.0601703 -0.062656 -0.0632985 -0.0620163 -0.0606937 -0.0585167 -0.0574056 -0.0566296 -0.0561734 -0.0569399 -0.0566659 -0.0555312 -0.0557023 -0.0562119 -0.0560923 -0.0558215 -0.056473 -0.0578911 -0.0642519 0 0 0 0 0 0 0 0 0 0 0 0 0 0 0 0 0 0 0 0 0 0 0 0 0 0 0 0 0 0 0 0 0 0 0 0 0 0 0 0 0 0 0 0 0 0 0 0 0 0 0 0 0 0 0 0 0 0 0 0 0 0 0 0 0 0 0 0 0 0 0 0 0 0 0 0 0 0 0 0 0 0 0 0 0 0 0 0 0 0 0 0 0 0 0 0 0 0 0 0 0 0 0 0 0 0 0 0 0 0 0 0 0 0 0 0 0 0 0 0 0 0 0 0 0 0 0 0 0 0 0 0 -0.0420699 -0.0420213 -0.0424336 -0.0447901 -0.0473047 -0.049676 -0.051804 -0.0535015 -0.0550699 -0.0561765 -0.0571994 -0.0577475 -0.0584291 -0.0584556 -0.0582768 -0.0596569 -0.0590649 -0.058189 -0.0572437 -0.0567234 -0.0563124 -0.0560107 -0.0555846 -0.0549571 -0.0545007 -0.0541875 -0.0539513 -0.0537509 -0.053566 -0.0535182 -0.0542523 -0.0553962 -0.0552362 -0.054662 -0.0546188 -0.0546651 -0.054746 -0.054848 -0.0549657 -0.0550937 -0.0552268 -0.0553608 -0.0554925 -0.0548021 -0.0543975 -0.0555612 -0.0552359 -0.0562677 -0.0556985 -0.0558583 -0.0559561 -0.0559774 -0.0561993 -0.0560892 -0.0560855 -0.0557853 -0.0555095 -0.0550458 -0.0546148 -0.0541052 -0.0536672 -0.053211 -0.0528191 -0.0524253 -0.0520301 -0.0516015 -0.0511203 -0.0506111 -0.0501613 -0.0497866 -0.0494824 -0.049241 -0.0490581 -0.0489302 -0.0488551 -0.0488322 -0.0488621 -0.0489446 -0.049071 -0.0492045 -0.0492784 -0.0492423 -0.0491632 -0.0490866 -0.0490931 -0.0493847 -0.0505057 -0.0499976 -0.0536507 -0.0542063 -0.0543069 -0.0548477 -0.0552468 -0.0552605 -0.0549377 -0.0553005 -0.0561442 -0.058708 -0.0633658 -0.0701515 0 0 0 0 0 0 0 0 0 0 0 0 0 0 0 0 0 0 0 0 0 -0.0651376 -0.0588952 -0.0610937 -0.0617546 -0.0619819 -0.061979 -0.061716 -0.0610674 -0.0599007 -0.059144 -0.0585544 -0.0580106 -0.0573531 -0.0563289 -0.0548307 -0.0536351 -0.0535764 -0.0538029 -0.053803 -0.0535753 -0.05323 -0.0528251 -0.0523699 -0.0518605 -0.0512771 -0.0506226 -0.0500216 -0.0495142 -0.0490828 -0.0487065 -0.0483732 -0.0480746 -0.0478056 -0.0475618 -0.0473399 -0.0471374 -0.0469521 -0.0467824 -0.046627 -0.0464847 -0.0463547 -0.0462358 -0.0461272 -0.0460278 -0.0459365 -0.0458522 -0.0457737 -0.0457001 -0.0456307 -0.0455651 -0.0455033 -0.0454458 -0.0453932 -0.0453463 -0.045306 -0.0452728 -0.0452467 -0.0452271 -0.0452128 -0.0452018 -0.0451918 -0.0451802 -0.045164 -0.0451399 -0.0451037 -0.0450506 -0.0449747 -0.0448694 -0.0447277 -0.0445429 -0.044309 -0.0440258 -0.0436934 -0.0433429 -0.0430322 -0.0428708 -0.0431274 -0.0437214 -0.0442755 -0.0446318 -0.0448007 -0.044869 -0.0448907 -0.0448868 -0.0448638 -0.044824 -0.0447692 -0.0447008 -0.04462 -0.0445285 -0.0444279 -0.0443197 -0.0442056 -0.0440869 -0.0439653 -0.0438418 -0.0437175 -0.0435935 -0.0434705 -0.043349 -0.0432296 -0.0431127 -0.0429985 -0.0428873 -0.0427791 -0.0426739 -0.0425717 -0.0424723 -0.0423751 -0.0422798 -0.0421853 -0.0420903 -0.0419916 -0.0418823 -0.041744 -0.041536 -0.0411946 -0.0406468 -0.0398234 -0.0385992 -0.0367922 -0.0342052 -0.0307011 -0.0260621 -0.020012 -0.0117889 -6.50521e-19 