# vtk DataFile Version 2.0
iteration 2295
ASCII

DATASET STRUCTURED_POINTS
DIMENSIONS 621 64 1
ORIGIN 0 0 0
SPACING 0.00161031 0.00161031 0.00161031

POINT_DATA 39744
SCALARS P float 1
LOOKUP_TABLE default
0 0 0 0 0 0 0 0 0 0 0 0 0 0 0 0 0 0 0 0 0 0 0 0 0 0 0 0 0 0 0 0 0 0 0 0 0 0 0 0 0 0 0 0 0 0 0 0 0 0 0 0 0 0 0 0 0 0 0 0 0 0 0 0 0 0 0 0 0 0 0 0 0 0 0 0 0 0 0 0 0 0 0 0 0 0 0 0 0 0 0 0 0 0 0 0 0 0 0 0 0 0 0 0 0 0 0 0 0 0 0 0 0 0 0 0 0 0 0 0 0 0 0 0 0 0 0 0 0 0 0 0 0 0 0 0 0 0 0 0 0 0 0 0 0 0 0 0 0 0 0 0 0 0 0 0 0 0 0 0 0 0 0 0 0 0 0 0 0 0 0 0 0 0 0 0 0 0 0 0 0 0 0 0 0 0 0 0 0 0 0 0 0 0 0 0 0 0 0 0 0 0 0 0 0 0 0 0 0 0 0 0 0 0 0 0 0 0 0 0 0 0 0 0 0 0 0 0 0 0 0 0 0 0 0 0 0 0 0 0 0 0 0 0 0 0 0 0 0 0 0 0 0 0 0 0 0 0 0 0 0 0 0 0 0 0 0 0 0 0 0 0 0 0 0 0 0 0 0 0 0 0 0 0 0 0 0 0 0 0 0 0 0 0 0 0 0 0 0 0 0 0 0 0 0 0 0 0 0 0 0 0 0 0 0 0 0 0 0 0 0 0 0 0 0 0 0 0 0 0 0 0 0 0 0 0 0 0 0 0 0 0 0 0 0 0 0 0 0 0 0 0 0 0 0 0 0 0 0 0 0 0 0 0 0 0 0 0 0 0 0 0 0 0 0 0 0 0 0 0 0 0 0 0 0 0 0 0 0 0 0 0 0 0 0 0 0 0 0 0 0 0 0 0 0 0 0 0 0 0 0 0 0 0 0 0 0 0 0 0 0 0 0 0 0 0 0 0 0 0 0 0 0 0 0 0 0 0 0 0 0 0 0 0 0 0 0 0 0 0 0 0 0 0 0 0 0 0 0 0 0 0 0 0 0 0 0 0 0 0 0 0 0 0 0 0 0 0 0 0 0 0 0 0 0 0 0 0 0 0 0 0 0 0 0 0 0 0 0 0 0 0 0 0 0 0 0 0 0 0 0 0 0 0 0 0 0 0 0 0 0 0 0 0 0 0 0 0 0 0 0 0 0 0 0 0 0 0 0 0 0 0 0 0 0 0 0 0 0 0 0 0 0 0 0 0 0 0 0 0 0 0 0 0 0 0 0 0 0 0 0 0 0 0 0 0 0 0 0 0 0 0 0 0 0 0 0 0 0 0 0 0 0 0 0 0 0 0 0 0 0 0 0 0 0 0 0 0 0 0 0 0 0 0 0 0 0 0 0 0 0 
0.0219989 0.0220232 0.022 0.0219859 0.0219741 0.0219624 0.02195 0.0219364 0.0219216 0.0219055 0.0218881 0.0218693 0.0218493 0.0218279 0.0218052 0.0217812 0.0217559 0.0217295 0.0217018 0.0216729 0.0216429 0.0216117 0.0215796 0.0215463 0.0215122 0.0214771 0.0214411 0.0214044 0.0213668 0.0213287 0.0212898 0.0212505 0.0212107 0.0211705 0.0211299 0.0210891 0.0210482 0.0210072 0.0209662 0.0209253 0.0208846 0.0208442 0.0208041 0.0207644 0.0207253 0.0206868 0.020649 0.0206119 0.0205757 0.0205404 0.0205061 0.0204728 0.0204406 0.0204096 0.0203797 0.0203511 0.0203237 0.0202976 0.0202729 0.0202494 0.0202272 0.0202064 0.0201868 0.0201686 0.0201516 0.0201358 0.0201212 0.0201078 0.0200955 0.0200843 0.0200741 0.0200649 0.0200565 0.0200491 0.0200424 0.0200365 0.0200312 0.0200266 0.0200225 0.020019 0.0200159 0.0200133 0.020011 0.0200091 0.0200075 0.0200061 0.0200049 0.020004 0.0200032 0.0200025 0.020002 0.0200016 0.0200012 0.0200009 0.0200007 0.0200006 0.0200004 0.0200003 0.0200002 0.0200002 0.0200001 0.0200001 0.0200001 0.02 0.02 0.02 0.02 0.02 0.02 0.02 0.02 0.02 0.02 0.02 0.02 0.02 0.02 0.02 0.02 0.02 0.02 0.02 0.02 0.02 0.02 0.02 0.02 0.02 0.02 0.02 0.02 0.02 0.02 0.02 0.02 0.02 0.02 0.02 0.02 0.02 0.02 0.02 0.02 0.02 0.02 0.02 0.02 0.02 0.02 0.02 0.02 0.02 0.02 0.02 0.02 0.02 0.02 0.02 0.02 0.02 0.02 0.02 0.02 0.02 0.02 0.02 0.02 0.02 0.02 0.02 0.02 0.02 0.02 0.02 0.02 0.02 0.02 0.02 0.02 0.02 0.02 0.02 0.02 0.02 0.02 0.02 0.02 0.02 0.02 0.02 0.02 0.02 0.02 0.02 0.02 0.02 0.02 0.02 0.02 0.02 0.02 0.02 0.02 0.02 0.02 0.02 0.02 0.02 0.02 0.0200001 0.0200001 0.0200001 0.0200001 0.0200001 0.0200001 0.0200001 0.0200001 0.0200001 0.0200002 0.0200002 0.0200002 0.0200002 0.0200002 0.0200003 0.0200003 0.0200003 0.0200004 0.0200004 0.0200004 0.0200005 0.0200005 0.0200006 0.0200006 0.0200007 0.0200007 0.0200008 0.0200009 0.020001 0.0200011 0.0200011 0.0200012 0.0200014 0.0200015 0.0200016 0.0200017 0.0200019 0.020002 0.0200022 0.0200023 0.0200025 0.0200027 0.0200029 0.0200031 0.0200033 0.0200035 0.0200038 0.020004 0.0200043 0.0200046 0.0200049 0.0200052 0.0200055 0.0200059 0.0200062 0.0200066 0.0200069 0.0200073 0.0200077 0.0200081 0.0200086 0.020009 0.0200094 0.0200099 0.0200104 0.0200108 0.0200113 0.0200118 0.0200123 0.0200128 0.0200133 0.0200138 0.0200143 0.0200148 0.0200153 0.0200158 0.0200163 0.0200167 0.0200172 0.0200176 0.0200181 0.0200185 0.0200189 0.0200192 0.0200195 0.0200198 0.02002 0.0200202 0.0200203 0.0200204 0.0200205 0.0200205 0.0200204 0.0200203 0.0200201 0.0200198 0.0200195 0.020019 0.0200185 0.0200179 0.0200172 0.0200164 0.0200154 0.0200144 0.0200133 0.020012 0.0200106 0.0200091 0.0200074 0.0200057 0.0200037 0.0200017 0.0199994 0.0199971 0.0199945 0.0199919 0.019989 0.019986 0.0199828 0.0199795 0.019976 0.0199723 0.0199685 0.0199644 0.0199602 0.0199559 0.0199513 0.0199466 0.0199417 0.0199367 0.0199314 0.019926 0.0199205 0.0199148 0.0199089 0.0199029 0.0198967 0.0198904 0.019884 0.0198774 0.0198707 0.0198639 0.019857 0.01985 0.0198428 0.0198356 0.0198283 0.0198209 0.0198135 0.019806 0.0197985 0.0197909 0.0197833 0.0197757 0.0197681 0.0197605 0.0197529 0.0197453 0.0197377 0.0197302 0.0197228 0.0197154 0.0197081 0.0197008 0.0196937 0.0196866 0.0196797 0.0196728 0.0196661 0.0196595 0.0196531 0.0196468 0.0196407 0.0196347 0.0196289 0.0196232 0.0196177 0.0196124 0.0196073 0.0196023 0.0195975 0.019593 0.0195889 0.0195848 0.0195812 0.0195779 0.0195748 0.0195721 0.0195696 0.0195673 0.0195653 0.0195636 0.0195622 0.019561 0.0195601 0.0195595 0.0195592 0.0195591 0.0195593 0.0195598 0.0195606 0.0195616 0.0195629 0.0195644 0.0195663 0.0195684 0.0195707 0.0195733 0.0195762 0.0195793 0.0195826 0.0195862 0.0195901 0.0195942 0.0195985 0.019603 0.0196078 0.0196128 0.019618 0.0196235 0.0196291 0.019635 0.019641 0.0196473 0.0196538 0.0196605 0.0196673 0.0196744 0.0196817 0.0196891 0.0196967 0.0197045 0.0197125 0.0197207 0.019729 0.0197375 0.0197462 0.019755 0.0197639 0.019773 0.0197823 0.0197916 0.0198011 0.0198107 0.0198204 0.0198302 0.0198401 0.0198501 0.01986 0.0198701 0.0198801 0.0198902 0.0199003 0.0199103 0.0199203 0.0199303 0.0199402 0.01995 0.0199597 0.0199693 0.0199787 0.019988 0.019997 0.0200059 0.0200146 0.0200231 0.0200313 0.0200393 0.020047 0.0200544 0.0200616 0.0200684 0.020075 0.0200812 0.0200871 0.0200927 0.0200979 0.0201029 0.0201075 0.0201119 0.020116 0.0201199 0.0201235 0.020127 0.0201304 0.0201338 0.0201372 0.0201408 0.0201446 0.0201488 0.0201534 0.0201586 0.0201646 0.0201714 0.0201792 0.0201882 0.0201983 0.0202098 0.0202227 0.0202371 0.0202529 0.02027 0.0202884 0.020308 0.0203284 0.0203494 0.0203707 0.0203917 0.020412 0.020431 0.0204481 0.0204624 0.0204732 0.0204795 0.0204804 0.0204747 0.0204611 0.0204383 0.0204047 0.0203584 0.0202974 0.0202194 0.020122 0.0200025 0.0198584 0.0196873 0.0194877 0.0192584 0.0189997 0.0187124 0.0183982 0.0180594 0.0177049 0.0173544 0.0169948 0.0168275 0.0170981 0.0200995 0.0215399 0 0 0 0 0 0 0 0 0 0 0 0 0 0 0 0 0 0 0 0 0 0 0 0 0 0 0 0 0 0 0 0 0 0 0 0 0 0 0 0 0 0 0 0 0 0 0 0 0 0 0 0 0 0 0 0 0 0 0 0 0 0 0 0 0 0 0 0 0 0 0 0 0 
0.0219989 0.0220059 0.0219957 0.0219847 0.0219734 0.0219617 0.021949 0.0219352 0.0219202 0.021904 0.0218864 0.0218674 0.0218472 0.0218257 0.0218028 0.0217787 0.0217533 0.0217266 0.0216988 0.0216698 0.0216397 0.0216084 0.0215761 0.0215428 0.0215085 0.0214733 0.0214373 0.0214004 0.0213628 0.0213245 0.0212857 0.0212462 0.0212064 0.0211661 0.0211255 0.0210847 0.0210437 0.0210027 0.0209617 0.0209207 0.02088 0.0208396 0.0207995 0.0207599 0.0207208 0.0206824 0.0206446 0.0206076 0.0205715 0.0205363 0.0205021 0.0204689 0.0204368 0.0204059 0.0203762 0.0203477 0.0203205 0.0202945 0.0202699 0.0202466 0.0202246 0.0202039 0.0201845 0.0201664 0.0201496 0.020134 0.0201196 0.0201063 0.0200942 0.0200831 0.020073 0.0200639 0.0200557 0.0200483 0.0200417 0.0200359 0.0200307 0.0200261 0.0200221 0.0200187 0.0200157 0.0200131 0.0200108 0.0200089 0.0200073 0.020006 0.0200048 0.0200039 0.0200031 0.0200025 0.020002 0.0200015 0.0200012 0.0200009 0.0200007 0.0200005 0.0200004 0.0200003 0.0200002 0.0200002 0.0200001 0.0200001 0.0200001 0.02 0.02 0.02 0.02 0.02 0.02 0.02 0.02 0.02 0.02 0.02 0.02 0.02 0.02 0.02 0.02 0.02 0.02 0.02 0.02 0.02 0.02 0.02 0.02 0.02 0.02 0.02 0.02 0.02 0.02 0.02 0.02 0.02 0.02 0.02 0.02 0.02 0.02 0.02 0.02 0.02 0.02 0.02 0.02 0.02 0.02 0.02 0.02 0.02 0.02 0.02 0.02 0.02 0.02 0.02 0.02 0.02 0.02 0.02 0.02 0.02 0.02 0.02 0.02 0.02 0.02 0.02 0.02 0.02 0.02 0.02 0.02 0.02 0.02 0.02 0.02 0.02 0.02 0.02 0.02 0.02 0.02 0.02 0.02 0.02 0.02 0.02 0.02 0.02 0.02 0.02 0.02 0.02 0.02 0.02 0.02 0.02 0.02 0.02 0.02 0.02 0.02 0.02 0.02 0.02 0.02 0.0200001 0.0200001 0.0200001 0.0200001 0.0200001 0.0200001 0.0200001 0.0200001 0.0200001 0.0200002 0.0200002 0.0200002 0.0200002 0.0200002 0.0200003 0.0200003 0.0200003 0.0200003 0.0200004 0.0200004 0.0200005 0.0200005 0.0200006 0.0200006 0.0200007 0.0200007 0.0200008 0.0200009 0.020001 0.020001 0.0200011 0.0200012 0.0200013 0.0200015 0.0200016 0.0200017 0.0200018 0.020002 0.0200021 0.0200023 0.0200025 0.0200027 0.0200029 0.0200031 0.0200033 0.0200035 0.0200038 0.020004 0.0200043 0.0200046 0.0200049 0.0200052 0.0200055 0.0200058 0.0200062 0.0200065 0.0200069 0.0200073 0.0200077 0.0200081 0.0200085 0.020009 0.0200094 0.0200099 0.0200103 0.0200108 0.0200113 0.0200118 0.0200123 0.0200128 0.0200133 0.0200138 0.0200143 0.0200148 0.0200153 0.0200158 0.0200162 0.0200167 0.0200172 0.0200176 0.020018 0.0200184 0.0200188 0.0200192 0.0200195 0.0200198 0.02002 0.0200202 0.0200204 0.0200205 0.0200205 0.0200205 0.0200205 0.0200204 0.0200202 0.0200199 0.0200196 0.0200191 0.0200186 0.020018 0.0200173 0.0200165 0.0200156 0.0200146 0.0200135 0.0200122 0.0200109 0.0200094 0.0200078 0.020006 0.0200041 0.020002 0.0199999 0.0199975 0.019995 0.0199924 0.0199896 0.0199866 0.0199834 0.0199801 0.0199767 0.019973 0.0199692 0.0199652 0.0199611 0.0199567 0.0199522 0.0199475 0.0199427 0.0199377 0.0199325 0.0199272 0.0199217 0.019916 0.0199102 0.0199042 0.0198981 0.0198918 0.0198854 0.0198789 0.0198722 0.0198655 0.0198586 0.0198516 0.0198445 0.0198373 0.01983 0.0198227 0.0198153 0.0198078 0.0198003 0.0197928 0.0197852 0.0197776 0.01977 0.0197624 0.0197548 0.0197472 0.0197397 0.0197322 0.0197247 0.0197173 0.01971 0.0197027 0.0196955 0.0196884 0.0196815 0.0196746 0.0196678 0.0196612 0.0196547 0.0196483 0.0196422 0.0196361 0.0196302 0.0196245 0.019619 0.0196136 0.0196085 0.0196037 0.0195989 0.0195945 0.0195904 0.0195866 0.019583 0.0195797 0.0195766 0.0195738 0.0195713 0.019569 0.019567 0.0195653 0.0195638 0.0195626 0.0195617 0.0195611 0.0195607 0.0195606 0.0195608 0.0195612 0.019562 0.019563 0.0195642 0.0195658 0.0195676 0.0195696 0.0195719 0.0195745 0.0195773 0.0195804 0.0195837 0.0195873 0.0195911 0.0195951 0.0195994 0.0196039 0.0196087 0.0196136 0.0196188 0.0196242 0.0196298 0.0196356 0.0196416 0.0196479 0.0196543 0.0196609 0.0196678 0.0196748 0.019682 0.0196894 0.019697 0.0197047 0.0197127 0.0197208 0.0197291 0.0197375 0.0197462 0.0197549 0.0197638 0.0197729 0.0197821 0.0197914 0.0198009 0.0198104 0.0198201 0.0198298 0.0198397 0.0198496 0.0198595 0.0198695 0.0198795 0.0198896 0.0198996 0.0199096 0.0199196 0.0199296 0.0199394 0.0199492 0.0199589 0.0199684 0.0199779 0.0199871 0.0199962 0.0200051 0.0200138 0.0200223 0.0200305 0.0200385 0.0200463 0.0200537 0.0200609 0.0200678 0.0200744 0.0200806 0.0200866 0.0200922 0.0200975 0.0201025 0.0201072 0.0201117 0.0201158 0.0201197 0.0201234 0.020127 0.0201304 0.0201338 0.0201373 0.0201409 0.0201447 0.0201488 0.0201534 0.0201586 0.0201645 0.0201712 0.020179 0.0201878 0.0201978 0.0202092 0.0202219 0.0202361 0.0202516 0.0202685 0.0202867 0.020306 0.0203262 0.020347 0.020368 0.0203888 0.0204089 0.0204278 0.0204447 0.020459 0.0204697 0.0204761 0.0204771 0.0204716 0.0204583 0.0204359 0.0204027 0.0203569 0.0202965 0.0202193 0.0201226 0.0200038 0.0198604 0.0196899 0.0194906 0.0192614 0.0190023 0.0187142 0.0183987 0.0180596 0.0177076 0.0173722 0.0170587 0.0169038 0.0172157 0.0186727 0.0212741 0.0228466 0 0.0137524 0.0128988 0.0118732 0.0115112 0.0116646 0.00962877 0 0 0 0 0 0 0 0 0 0 0 0 0 0 0 0 0 0 0 0 0 0 0 0 0 0 0 0 0 0 0 0 0 0 0 0 0 0 0 0 0 0 0 0 0 0 0 0 0 0 0 0 0 0 0 0 0 0 0 0 0 0 0 0 0 
0.0219989 0.0220001 0.0219934 0.0219841 0.0219735 0.0219618 0.0219491 0.0219352 0.0219201 0.0219038 0.0218861 0.0218671 0.0218468 0.0218251 0.0218022 0.021778 0.0217526 0.0217259 0.021698 0.0216689 0.0216387 0.0216074 0.021575 0.0215417 0.0215073 0.0214721 0.021436 0.0213991 0.0213614 0.0213231 0.0212842 0.0212447 0.0212048 0.0211645 0.0211239 0.021083 0.021042 0.021001 0.0209599 0.020919 0.0208783 0.0208378 0.0207977 0.0207581 0.020719 0.0206806 0.0206428 0.0206058 0.0205697 0.0205345 0.0205003 0.0204671 0.0204351 0.0204042 0.0203745 0.0203461 0.0203189 0.020293 0.0202685 0.0202452 0.0202233 0.0202027 0.0201833 0.0201653 0.0201485 0.020133 0.0201186 0.0201054 0.0200934 0.0200823 0.0200723 0.0200633 0.0200551 0.0200478 0.0200413 0.0200355 0.0200303 0.0200258 0.0200219 0.0200184 0.0200155 0.0200129 0.0200107 0.0200088 0.0200072 0.0200059 0.0200048 0.0200038 0.0200031 0.0200025 0.0200019 0.0200015 0.0200012 0.0200009 0.0200007 0.0200005 0.0200004 0.0200003 0.0200002 0.0200002 0.0200001 0.0200001 0.0200001 0.02 0.02 0.02 0.02 0.02 0.02 0.02 0.02 0.02 0.02 0.02 0.02 0.02 0.02 0.02 0.02 0.02 0.02 0.02 0.02 0.02 0.02 0.02 0.02 0.02 0.02 0.02 0.02 0.02 0.02 0.02 0.02 0.02 0.02 0.02 0.02 0.02 0.02 0.02 0.02 0.02 0.02 0.02 0.02 0.02 0.02 0.02 0.02 0.02 0.02 0.02 0.02 0.02 0.02 0.02 0.02 0.02 0.02 0.02 0.02 0.02 0.02 0.02 0.02 0.02 0.02 0.02 0.02 0.02 0.02 0.02 0.02 0.02 0.02 0.02 0.02 0.02 0.02 0.02 0.02 0.02 0.02 0.02 0.02 0.02 0.02 0.02 0.02 0.02 0.02 0.02 0.02 0.02 0.02 0.02 0.02 0.02 0.02 0.02 0.02 0.02 0.02 0.02 0.02 0.02 0.02 0.0200001 0.0200001 0.0200001 0.0200001 0.0200001 0.0200001 0.0200001 0.0200001 0.0200001 0.0200002 0.0200002 0.0200002 0.0200002 0.0200002 0.0200003 0.0200003 0.0200003 0.0200003 0.0200004 0.0200004 0.0200005 0.0200005 0.0200006 0.0200006 0.0200007 0.0200007 0.0200008 0.0200009 0.020001 0.020001 0.0200011 0.0200012 0.0200013 0.0200014 0.0200016 0.0200017 0.0200018 0.020002 0.0200021 0.0200023 0.0200025 0.0200027 0.0200029 0.0200031 0.0200033 0.0200035 0.0200037 0.020004 0.0200043 0.0200045 0.0200048 0.0200051 0.0200055 0.0200058 0.0200061 0.0200065 0.0200069 0.0200073 0.0200076 0.0200081 0.0200085 0.0200089 0.0200094 0.0200098 0.0200103 0.0200107 0.0200112 0.0200117 0.0200122 0.0200127 0.0200132 0.0200137 0.0200142 0.0200147 0.0200152 0.0200157 0.0200162 0.0200167 0.0200171 0.0200176 0.020018 0.0200184 0.0200188 0.0200191 0.0200194 0.0200197 0.02002 0.0200202 0.0200203 0.0200204 0.0200205 0.0200205 0.0200205 0.0200204 0.0200202 0.0200199 0.0200196 0.0200192 0.0200187 0.0200181 0.0200174 0.0200166 0.0200158 0.0200148 0.0200137 0.0200124 0.0200111 0.0200096 0.020008 0.0200063 0.0200044 0.0200024 0.0200002 0.0199979 0.0199955 0.0199929 0.0199901 0.0199871 0.019984 0.0199808 0.0199774 0.0199738 0.01997 0.0199661 0.0199619 0.0199577 0.0199532 0.0199486 0.0199438 0.0199389 0.0199337 0.0199284 0.019923 0.0199174 0.0199116 0.0199057 0.0198997 0.0198935 0.0198871 0.0198807 0.0198741 0.0198673 0.0198605 0.0198536 0.0198465 0.0198394 0.0198322 0.0198249 0.0198176 0.0198102 0.0198027 0.0197952 0.0197877 0.0197801 0.0197725 0.019765 0.0197574 0.0197498 0.0197423 0.0197348 0.0197273 0.0197199 0.0197126 0.0197053 0.0196981 0.019691 0.019684 0.0196771 0.0196703 0.0196636 0.0196571 0.0196507 0.0196445 0.0196384 0.0196325 0.0196268 0.0196213 0.019616 0.0196109 0.0196061 0.0196016 0.0195973 0.0195932 0.0195894 0.0195858 0.0195825 0.0195794 0.0195766 0.019574 0.0195717 0.0195697 0.0195679 0.0195665 0.0195652 0.0195643 0.0195636 0.0195632 0.0195631 0.0195633 0.0195637 0.0195644 0.0195653 0.0195665 0.019568 0.0195698 0.0195718 0.019574 0.0195766 0.0195793 0.0195824 0.0195856 0.0195891 0.0195929 0.0195969 0.0196011 0.0196055 0.0196102 0.0196151 0.0196202 0.0196255 0.0196311 0.0196368 0.0196428 0.0196489 0.0196553 0.0196618 0.0196686 0.0196755 0.0196827 0.01969 0.0196975 0.0197052 0.019713 0.0197211 0.0197293 0.0197376 0.0197462 0.0197549 0.0197637 0.0197727 0.0197818 0.019791 0.0198004 0.0198099 0.0198195 0.0198291 0.0198389 0.0198487 0.0198586 0.0198685 0.0198785 0.0198884 0.0198984 0.0199083 0.0199183 0.0199281 0.0199379 0.0199477 0.0199573 0.0199668 0.0199762 0.0199854 0.0199945 0.0200033 0.020012 0.0200205 0.0200287 0.0200367 0.0200445 0.0200519 0.0200591 0.020066 0.0200726 0.020079 0.0200849 0.0200906 0.020096 0.0201011 0.0201059 0.0201103 0.0201146 0.0201186 0.0201223 0.020126 0.0201295 0.020133 0.0201365 0.0201401 0.020144 0.0201481 0.0201528 0.020158 0.0201638 0.0201706 0.0201783 0.020187 0.020197 0.0202082 0.0202208 0.0202348 0.0202502 0.0202669 0.0202849 0.020304 0.0203239 0.0203444 0.0203652 0.0203858 0.0204057 0.0204243 0.020441 0.0204551 0.0204658 0.0204721 0.0204731 0.0204676 0.0204545 0.0204322 0.0203992 0.0203537 0.0202937 0.0202167 0.0201204 0.0200019 0.0198587 0.0196884 0.0194889 0.0192594 0.0189996 0.018711 0.0183958 0.0180601 0.0177197 0.0174183 0.0171738 0.0170556 0.0174026 0.0182549 0.0188867 0.0195473 0.0160949 0.0138913 0.0132422 0.0122341 0.0113584 0.0108615 0.00964895 0.00817474 0.00671505 0.0052575 0.00471576 0 0 0 0 0 0 0 0 0 0 0 0 0 0 0 0 0 0 0 0 0 0 0 0 0 0 0 0 0 0 0 0 0 0 0 0 0 0 0 0 0 0 0 0 0 0 0 0 0 0 0 0 0 0 0 0 0 0 0 0 8.67362e-19 
0.0219989 0.0219978 0.0219922 0.0219838 0.0219736 0.0219621 0.0219494 0.0219355 0.0219203 0.0219039 0.0218862 0.0218671 0.0218467 0.0218251 0.0218021 0.0217778 0.0217523 0.0217256 0.0216976 0.0216685 0.0216383 0.0216069 0.0215745 0.0215411 0.0215068 0.0214715 0.0214353 0.0213984 0.0213607 0.0213224 0.0212834 0.0212439 0.021204 0.0211636 0.021123 0.0210821 0.0210411 0.021 0.020959 0.020918 0.0208772 0.0208368 0.0207967 0.020757 0.0207179 0.0206795 0.0206417 0.0206047 0.0205686 0.0205334 0.0204992 0.020466 0.020434 0.0204031 0.0203734 0.020345 0.0203178 0.020292 0.0202674 0.0202442 0.0202223 0.0202017 0.0201824 0.0201644 0.0201477 0.0201322 0.0201179 0.0201048 0.0200927 0.0200817 0.0200718 0.0200628 0.0200547 0.0200474 0.0200409 0.0200351 0.02003 0.0200256 0.0200217 0.0200182 0.0200153 0.0200127 0.0200106 0.0200087 0.0200071 0.0200058 0.0200047 0.0200038 0.020003 0.0200024 0.0200019 0.0200015 0.0200012 0.0200009 0.0200007 0.0200005 0.0200004 0.0200003 0.0200002 0.0200002 0.0200001 0.0200001 0.0200001 0.02 0.02 0.02 0.02 0.02 0.02 0.02 0.02 0.02 0.02 0.02 0.02 0.02 0.02 0.02 0.02 0.02 0.02 0.02 0.02 0.02 0.02 0.02 0.02 0.02 0.02 0.02 0.02 0.02 0.02 0.02 0.02 0.02 0.02 0.02 0.02 0.02 0.02 0.02 0.02 0.02 0.02 0.02 0.02 0.02 0.02 0.02 0.02 0.02 0.02 0.02 0.02 0.02 0.02 0.02 0.02 0.02 0.02 0.02 0.02 0.02 0.02 0.02 0.02 0.02 0.02 0.02 0.02 0.02 0.02 0.02 0.02 0.02 0.02 0.02 0.02 0.02 0.02 0.02 0.02 0.02 0.02 0.02 0.02 0.02 0.02 0.02 0.02 0.02 0.02 0.02 0.02 0.02 0.02 0.02 0.02 0.02 0.02 0.02 0.02 0.02 0.02 0.02 0.02 0.02 0.02 0.0200001 0.0200001 0.0200001 0.0200001 0.0200001 0.0200001 0.0200001 0.0200001 0.0200001 0.0200001 0.0200002 0.0200002 0.0200002 0.0200002 0.0200003 0.0200003 0.0200003 0.0200003 0.0200004 0.0200004 0.0200005 0.0200005 0.0200006 0.0200006 0.0200007 0.0200007 0.0200008 0.0200009 0.0200009 0.020001 0.0200011 0.0200012 0.0200013 0.0200014 0.0200016 0.0200017 0.0200018 0.020002 0.0200021 0.0200023 0.0200025 0.0200026 0.0200028 0.020003 0.0200032 0.0200035 0.0200037 0.020004 0.0200042 0.0200045 0.0200048 0.0200051 0.0200054 0.0200057 0.0200061 0.0200064 0.0200068 0.0200072 0.0200076 0.020008 0.0200084 0.0200088 0.0200093 0.0200097 0.0200102 0.0200107 0.0200111 0.0200116 0.0200121 0.0200126 0.0200131 0.0200136 0.0200141 0.0200146 0.0200151 0.0200156 0.0200161 0.0200165 0.020017 0.0200175 0.0200179 0.0200183 0.0200187 0.020019 0.0200194 0.0200196 0.0200199 0.0200201 0.0200203 0.0200204 0.0200204 0.0200205 0.0200204 0.0200203 0.0200201 0.0200199 0.0200196 0.0200192 0.0200187 0.0200181 0.0200175 0.0200167 0.0200159 0.0200149 0.0200138 0.0200126 0.0200113 0.0200099 0.0200083 0.0200066 0.0200048 0.0200028 0.0200007 0.0199984 0.019996 0.0199934 0.0199907 0.0199878 0.0199848 0.0199815 0.0199782 0.0199746 0.0199709 0.0199671 0.019963 0.0199588 0.0199544 0.0199499 0.0199452 0.0199403 0.0199352 0.01993 0.0199246 0.0199191 0.0199134 0.0199076 0.0199016 0.0198955 0.0198892 0.0198829 0.0198763 0.0198697 0.019863 0.0198561 0.0198491 0.0198421 0.0198349 0.0198277 0.0198204 0.0198131 0.0198057 0.0197982 0.0197908 0.0197832 0.0197757 0.0197682 0.0197606 0.0197531 0.0197456 0.0197381 0.0197306 0.0197232 0.0197159 0.0197086 0.0197014 0.0196943 0.0196872 0.0196803 0.0196735 0.0196669 0.0196603 0.019654 0.0196478 0.0196417 0.0196359 0.0196302 0.0196248 0.0196196 0.0196146 0.0196098 0.0196053 0.019601 0.0195969 0.0195931 0.0195895 0.0195862 0.0195831 0.0195802 0.0195777 0.0195753 0.0195733 0.0195715 0.01957 0.0195688 0.0195678 0.0195671 0.0195666 0.0195665 0.0195666 0.0195669 0.0195676 0.0195685 0.0195696 0.0195711 0.0195727 0.0195747 0.0195769 0.0195793 0.019582 0.019585 0.0195882 0.0195916 0.0195953 0.0195992 0.0196033 0.0196077 0.0196122 0.019617 0.0196221 0.0196273 0.0196327 0.0196384 0.0196442 0.0196503 0.0196565 0.019663 0.0196696 0.0196764 0.0196835 0.0196907 0.0196981 0.0197056 0.0197134 0.0197213 0.0197294 0.0197376 0.019746 0.0197546 0.0197633 0.0197721 0.0197811 0.0197903 0.0197995 0.0198089 0.0198183 0.0198279 0.0198375 0.0198472 0.019857 0.0198668 0.0198766 0.0198864 0.0198963 0.0199061 0.0199159 0.0199257 0.0199354 0.0199451 0.0199546 0.019964 0.0199733 0.0199825 0.0199915 0.0200003 0.0200089 0.0200173 0.0200256 0.0200335 0.0200413 0.0200487 0.0200559 0.0200629 0.0200695 0.0200758 0.0200819 0.0200876 0.0200931 0.0200982 0.0201031 0.0201077 0.020112 0.0201161 0.02012 0.0201237 0.0201274 0.020131 0.0201346 0.0201383 0.0201423 0.0201466 0.0201513 0.0201565 0.0201624 0.0201692 0.0201769 0.0201856 0.0201955 0.0202067 0.0202192 0.020233 0.0202482 0.0202647 0.0202825 0.0203013 0.0203209 0.0203411 0.0203616 0.0203818 0.0204013 0.0204197 0.0204361 0.0204499 0.0204604 0.0204665 0.0204674 0.0204619 0.0204488 0.0204266 0.0203938 0.0203486 0.0202888 0.0202122 0.0201161 0.019998 0.0198549 0.0196846 0.019485 0.0192551 0.0189949 0.0187065 0.0183943 0.0180668 0.0177467 0.0174783 0.0173086 0.0172406 0.0173692 0.0179713 0.0184538 0.0177623 0.0160171 0.0143441 0.0130613 0.0122288 0.0112625 0.0103901 0.00927092 0.00787204 0.00645021 0.00507051 0.00384555 0.0024642 0.000988131 0 0 0 0 0 0 0 0 0 0 0 0 0 0 0 0 0 0 0 0 0 0 0 0 0 0 0 0 0 0 0 0 0 0 0 0 0 0 0 0 0 0 0 0 0 0 0 0 0 0 0 0 0 0 0 0 0 0 -4.33681e-18 
0.0219989 0.0219966 0.0219912 0.0219834 0.0219736 0.0219623 0.0219497 0.0219358 0.0219206 0.0219041 0.0218863 0.0218672 0.0218468 0.0218251 0.021802 0.0217778 0.0217522 0.0217254 0.0216974 0.0216683 0.021638 0.0216066 0.0215742 0.0215407 0.0215063 0.021471 0.0214348 0.0213979 0.0213602 0.0213218 0.0212828 0.0212433 0.0212033 0.021163 0.0211223 0.0210814 0.0210404 0.0209992 0.0209582 0.0209172 0.0208764 0.0208359 0.0207958 0.0207561 0.020717 0.0206785 0.0206407 0.0206037 0.0205676 0.0205324 0.0204982 0.020465 0.020433 0.0204021 0.0203725 0.020344 0.0203169 0.0202911 0.0202665 0.0202433 0.0202215 0.0202009 0.0201817 0.0201637 0.020147 0.0201315 0.0201173 0.0201042 0.0200922 0.0200812 0.0200713 0.0200623 0.0200542 0.020047 0.0200406 0.0200348 0.0200298 0.0200253 0.0200214 0.0200181 0.0200151 0.0200126 0.0200105 0.0200086 0.0200071 0.0200058 0.0200047 0.0200038 0.020003 0.0200024 0.0200019 0.0200015 0.0200012 0.0200009 0.0200007 0.0200005 0.0200004 0.0200003 0.0200002 0.0200002 0.0200001 0.0200001 0.0200001 0.02 0.02 0.02 0.02 0.02 0.02 0.02 0.02 0.02 0.02 0.02 0.02 0.02 0.02 0.02 0.02 0.02 0.02 0.02 0.02 0.02 0.02 0.02 0.02 0.02 0.02 0.02 0.02 0.02 0.02 0.02 0.02 0.02 0.02 0.02 0.02 0.02 0.02 0.02 0.02 0.02 0.02 0.02 0.02 0.02 0.02 0.02 0.02 0.02 0.02 0.02 0.02 0.02 0.02 0.02 0.02 0.02 0.02 0.02 0.02 0.02 0.02 0.02 0.02 0.02 0.02 0.02 0.02 0.02 0.02 0.02 0.02 0.02 0.02 0.02 0.02 0.02 0.02 0.02 0.02 0.02 0.02 0.02 0.02 0.02 0.02 0.02 0.02 0.02 0.02 0.02 0.02 0.02 0.02 0.02 0.02 0.02 0.02 0.02 0.02 0.02 0.02 0.02 0.02 0.02 0.02 0.02 0.0200001 0.0200001 0.0200001 0.0200001 0.0200001 0.0200001 0.0200001 0.0200001 0.0200001 0.0200002 0.0200002 0.0200002 0.0200002 0.0200002 0.0200003 0.0200003 0.0200003 0.0200004 0.0200004 0.0200005 0.0200005 0.0200005 0.0200006 0.0200007 0.0200007 0.0200008 0.0200009 0.0200009 0.020001 0.0200011 0.0200012 0.0200013 0.0200014 0.0200015 0.0200017 0.0200018 0.0200019 0.0200021 0.0200022 0.0200024 0.0200026 0.0200028 0.020003 0.0200032 0.0200034 0.0200037 0.0200039 0.0200042 0.0200045 0.0200047 0.020005 0.0200054 0.0200057 0.020006 0.0200064 0.0200067 0.0200071 0.0200075 0.0200079 0.0200083 0.0200087 0.0200092 0.0200096 0.0200101 0.0200106 0.020011 0.0200115 0.020012 0.0200125 0.020013 0.0200135 0.020014 0.0200145 0.020015 0.0200155 0.0200159 0.0200164 0.0200169 0.0200173 0.0200177 0.0200181 0.0200185 0.0200189 0.0200192 0.0200195 0.0200197 0.02002 0.0200201 0.0200203 0.0200203 0.0200204 0.0200203 0.0200202 0.0200201 0.0200198 0.0200195 0.0200192 0.0200187 0.0200181 0.0200175 0.0200168 0.0200159 0.020015 0.0200139 0.0200128 0.0200115 0.0200101 0.0200086 0.0200069 0.0200051 0.0200032 0.0200011 0.0199989 0.0199965 0.019994 0.0199914 0.0199886 0.0199856 0.0199824 0.0199791 0.0199757 0.019972 0.0199682 0.0199643 0.0199602 0.0199559 0.0199514 0.0199468 0.019942 0.019937 0.0199319 0.0199266 0.0199212 0.0199156 0.0199099 0.019904 0.019898 0.0198918 0.0198855 0.0198791 0.0198726 0.0198659 0.0198591 0.0198523 0.0198453 0.0198382 0.0198311 0.0198239 0.0198166 0.0198093 0.0198019 0.0197945 0.019787 0.0197795 0.019772 0.0197645 0.019757 0.0197495 0.0197421 0.0197346 0.0197273 0.0197199 0.0197127 0.0197055 0.0196984 0.0196914 0.0196845 0.0196777 0.0196711 0.0196646 0.0196583 0.0196522 0.0196462 0.0196404 0.0196348 0.0196294 0.0196243 0.0196193 0.0196145 0.01961 0.0196057 0.0196016 0.0195977 0.0195941 0.0195908 0.0195877 0.0195848 0.0195822 0.0195799 0.0195778 0.019576 0.0195744 0.0195731 0.0195721 0.0195713 0.0195708 0.0195706 0.0195707 0.019571 0.0195715 0.0195724 0.0195735 0.0195748 0.0195764 0.0195783 0.0195804 0.0195828 0.0195854 0.0195882 0.0195913 0.0195946 0.0195982 0.019602 0.019606 0.0196103 0.0196147 0.0196194 0.0196243 0.0196294 0.0196347 0.0196402 0.0196459 0.0196519 0.019658 0.0196643 0.0196708 0.0196775 0.0196843 0.0196914 0.0196986 0.019706 0.0197136 0.0197214 0.0197293 0.0197374 0.0197456 0.019754 0.0197626 0.0197713 0.0197801 0.0197891 0.0197981 0.0198073 0.0198166 0.019826 0.0198355 0.019845 0.0198546 0.0198642 0.0198739 0.0198836 0.0198933 0.019903 0.0199126 0.0199223 0.0199318 0.0199413 0.0199507 0.01996 0.0199692 0.0199783 0.0199872 0.0199959 0.0200044 0.0200128 0.020021 0.0200289 0.0200366 0.0200441 0.0200513 0.0200582 0.0200649 0.0200713 0.0200774 0.0200832 0.0200887 0.020094 0.0200989 0.0201036 0.0201081 0.0201123 0.0201164 0.0201203 0.0201241 0.0201278 0.0201316 0.0201355 0.0201396 0.020144 0.0201488 0.0201542 0.0201602 0.020167 0.0201747 0.0201835 0.0201934 0.0202045 0.0202168 0.0202305 0.0202455 0.0202618 0.0202793 0.0202977 0.020317 0.0203368 0.0203569 0.0203767 0.0203958 0.0204137 0.0204297 0.0204431 0.0204533 0.0204591 0.0204598 0.0204542 0.020441 0.0204189 0.0203863 0.0203412 0.0202818 0.0202055 0.0201098 0.019992 0.0198493 0.0196791 0.0194796 0.0192497 0.0189899 0.0187036 0.0183977 0.0180837 0.017786 0.0175455 0.0174052 0.0173795 0.0174771 0.0176538 0.017639 0.0170056 0.0155252 0.0141435 0.0129241 0.0118705 0.0109386 0.00993695 0.00876206 0.00745195 0.00611324 0.00487348 0.00351495 0.00212504 0.000664449 -0.00108408 -0.00314147 -0.00563969 0 0 0 0 0 0 0 0 0 0 0 0 0 0 0 0 0 0 0 0 0 0 0 0 0 0 0 0 0 0 0 0 0 0 0 0 0 0 0 0 0 0 0 0 0 0 0 0 0 0 0 0 0 0 0 2.60209e-18 