# vtk DataFile Version 2.0
iteration 1809
ASCII

DATASET STRUCTURED_POINTS
DIMENSIONS 621 64 1
ORIGIN 0 0 0
SPACING 0.00161031 0.00161031 0.00161031

POINT_DATA 39744
SCALARS P float 1
LOOKUP_TABLE default
0 0 0 0 0 0 0 0 0 0 0 0 0 0 0 0 0 0 0 0 0 0 0 0 0 0 0 0 0 0 0 0 0 0 0 0 0 0 0 0 0 0 0 0 0 0 0 0 0 0 0 0 0 0 0 0 0 0 0 0 0 0 0 0 0 0 0 0 0 0 0 0 0 0 0 0 0 0 0 0 0 0 0 0 0 0 0 0 0 0 0 0 0 0 0 0 0 0 0 0 0 0 0 0 0 0 0 0 0 0 0 0 0 0 0 0 0 0 0 0 0 0 0 0 0 0 0 0 0 0 0 0 0 0 0 0 0 0 0 0 0 0 0 0 0 0 0 0 0 0 0 0 0 0 0 0 0 0 0 0 0 0 0 0 0 0 0 0 0 0 0 0 0 0 0 0 0 0 0 0 0 0 0 0 0 0 0 0 0 0 0 0 0 0 0 0 0 0 0 0 0 0 0 0 0 0 0 0 0 0 0 0 0 0 0 0 0 0 0 0 0 0 0 0 0 0 0 0 0 0 0 0 0 0 0 0 0 0 0 0 0 0 0 0 0 0 0 0 0 0 0 0 0 0 0 0 0 0 0 0 0 0 0 0 0 0 0 0 0 0 0 0 0 0 0 0 0 0 0 0 0 0 0 0 0 0 0 0 0 0 0 0 0 0 0 0 0 0 0 0 0 0 0 0 0 0 0 0 0 0 0 0 0 0 0 0 0 0 0 0 0 0 0 0 0 0 0 0 0 0 0 0 0 0 0 0 0 0 0 0 0 0 0 0 0 0 0 0 0 0 0 0 0 0 0 0 0 0 0 0 0 0 0 0 0 0 0 0 0 0 0 0 0 0 0 0 0 0 0 0 0 0 0 0 0 0 0 0 0 0 0 0 0 0 0 0 0 0 0 0 0 0 0 0 0 0 0 0 0 0 0 0 0 0 0 0 0 0 0 0 0 0 0 0 0 0 0 0 0 0 0 0 0 0 0 0 0 0 0 0 0 0 0 0 0 0 0 0 0 0 0 0 0 0 0 0 0 0 0 0 0 0 0 0 0 0 0 0 0 0 0 0 0 0 0 0 0 0 0 0 0 0 0 0 0 0 0 0 0 0 0 0 0 0 0 0 0 0 0 0 0 0 0 0 0 0 0 0 0 0 0 0 0 0 0 0 0 0 0 0 0 0 0 0 0 0 0 0 0 0 0 0 0 0 0 0 0 0 0 0 0 0 0 0 0 0 0 0 0 0 0 0 0 0 0 0 0 0 0 0 0 0 0 0 0 0 0 0 0 0 0 0 0 0 0 0 0 0 0 0 0 0 0 0 0 0 0 0 0 0 0 0 0 0 0 0 0 0 0 0 0 0 0 0 0 0 0 0 0 0 0 0 0 0 0 0 0 0 0 0 0 
0.02 0.02 0.02 0.02 0.02 0.02 0.02 0.02 0.02 0.02 0.02 0.02 0.02 0.02 0.02 0.02 0.02 0.02 0.02 0.02 0.02 0.02 0.02 0.02 0.02 0.02 0.02 0.02 0.02 0.02 0.02 0.02 0.02 0.02 0.02 0.02 0.02 0.02 0.02 0.02 0.02 0.02 0.02 0.02 0.02 0.02 0.02 0.02 0.02 0.02 0.02 0.02 0.02 0.02 0.02 0.02 0.02 0.02 0.02 0.02 0.02 0.02 0.02 0.02 0.02 0.02 0.02 0.02 0.02 0.02 0.02 0.02 0.02 0.02 0.02 0.02 0.02 0.02 0.02 0.02 0.02 0.02 0.02 0.02 0.02 0.02 0.02 0.02 0.02 0.02 0.02 0.02 0.02 0.02 0.02 0.02 0.02 0.02 0.02 0.02 0.02 0.02 0.02 0.02 0.02 0.02 0.02 0.02 0.02 0.02 0.02 0.02 0.02 0.02 0.02 0.02 0.02 0.02 0.02 0.02 0.02 0.02 0.02 0.02 0.02 0.02 0.02 0.02 0.02 0.02 0.02 0.02 0.02 0.02 0.0199999 0.0199999 0.0199999 0.0199999 0.0199999 0.0199999 0.0199999 0.0199999 0.0199999 0.0199999 0.0199999 0.0199999 0.0199998 0.0199998 0.0199998 0.0199998 0.0199998 0.0199998 0.0199997 0.0199997 0.0199997 0.0199997 0.0199996 0.0199996 0.0199996 0.0199995 0.0199995 0.0199994 0.0199994 0.0199994 0.0199993 0.0199993 0.0199992 0.0199992 0.0199991 0.019999 0.019999 0.0199989 0.0199988 0.0199987 0.0199987 0.0199986 0.0199985 0.0199984 0.0199984 0.0199983 0.0199982 0.0199981 0.019998 0.0199979 0.0199979 0.0199978 0.0199977 0.0199977 0.0199976 0.0199976 0.0199975 0.0199975 0.0199975 0.0199975 0.0199975 0.0199976 0.0199976 0.0199977 0.0199979 0.019998 0.0199982 0.0199985 0.0199988 0.0199991 0.0199995 0.02 0.0200005 0.0200011 0.0200018 0.0200025 0.0200034 0.0200043 0.0200054 0.0200065 0.0200078 0.0200091 0.0200106 0.0200123 0.0200141 0.020016 0.0200181 0.0200203 0.0200227 0.0200253 0.0200281 0.0200311 0.0200342 0.0200376 0.0200412 0.020045 0.020049 0.0200532 0.0200577 0.0200624 0.0200673 0.0200725 0.020078 0.0200837 0.0200896 0.0200958 0.0201023 0.0201091 0.020116 0.0201233 0.0201308 0.0201386 0.0201464 0.0201545 0.0201628 0.0201715 0.0201804 0.0201896 0.020199 0.0202087 0.0202186 0.0202287 0.020239 0.0202495 0.0202602 0.0202711 0.0202822 0.0202934 0.0203048 0.0203163 0.0203279 0.0203396 0.0203515 0.0203634 0.0203754 0.0203874 0.0203995 0.0204116 0.0204236 0.0204357 0.0204477 0.0204597 0.0204715 0.0204833 0.0204949 0.0205064 0.0205178 0.0205289 0.0205398 0.0205505 0.020561 0.0205711 0.020581 0.0205905 0.0205997 0.0206085 0.020617 0.020625 0.0206326 0.0206398 0.0206465 0.0206527 0.0206584 0.0206636 0.0206682 0.0206723 0.0206759 0.0206789 0.0206813 0.0206832 0.0206844 0.0206851 0.0206852 0.0206847 0.0206836 0.0206819 0.0206797 0.0206768 0.0206734 0.0206698 0.0206658 0.020661 0.0206563 0.0206512 0.0206457 0.0206399 0.0206338 0.0206273 0.0206207 0.0206138 0.0206067 0.0205994 0.020592 0.0205845 0.020577 0.0205693 0.0205617 0.0205541 0.0205466 0.0205391 0.0205317 0.0205245 0.0205174 0.0205105 0.0205039 0.0204974 0.0204912 0.0204853 0.0204797 0.0204743 0.0204693 0.0204647 0.0204604 0.0204564 0.0204528 0.0204496 0.0204467 0.0204443 0.0204422 0.0204405 0.0204392 0.0204382 0.0204376 0.0204374 0.0204375 0.020438 0.0204388 0.0204399 0.0204413 0.0204429 0.0204448 0.020447 0.0204493 0.0204517 0.0204543 0.0204569 0.0204596 0.0204622 0.0204648 0.0204673 0.0204696 0.0204717 0.0204735 0.020475 0.020476 0.0204765 0.0204764 0.0204756 0.020474 0.0204716 0.0204681 0.0204635 0.0204576 0.0204502 0.0204412 0.0204304 0.0204176 0.0204026 0.0203851 0.020365 0.0203419 0.0203158 0.0202863 0.0202534 0.0202169 0.0201767 0.0201327 0.0200851 0.0200337 0.0199786 0.0199198 0.0198574 0.0197912 0.0197214 0.0196478 0.0195706 0.0194897 0.019405 0.0193166 0.0192245 0.0191285 0.0190287 0.018925 0.0188173 0.0187051 0.018588 0.0184651 0.0183349 0.0181957 0.0180437 0.0178663 0.0176542 0.0174293 0.0171824 0.0169058 0.0165936 0.0162405 0.0158405 0.0153874 0.0148744 0.0142951 0.0136442 0.0129202 0.0121282 0.0112965 0.0106073 0.0114676 0 0 0 0 0 0 0 0 0 0 0 0 0 0 0 0 0 0 0 0 0 0 0 0 0 0 0 0 0 0 0 0 0 0 0 0 0 0 0 0 0 0 0 0 0 0 0 0 0 0 0 0 0 0 0 0 0 0 0 0 0 0 0 0 0 0 0 0 0 0 0 0 0 0 0 0 0 0 0 0 0 0 0 0 0 0 0 0 0 0 0 0 0 0 0 0 0 0 0 0 0 0 0 0 0 0 0 0 0 0 0 0 0 0 0 0 0 0 0 0 0 0 0 0 0 0 0 0 0 0 0 0 0 0 0 0 0 0 0 0 0 0 0 0 0 0 0 0 0 0 0 0 0 0 0 0 0 0 0 0 0 0 0 0 0 0 0 0 0 0 0 0 0 0 0 0 0 0 0 0 
0.02 0.02 0.02 0.02 0.02 0.02 0.02 0.02 0.02 0.02 0.02 0.02 0.02 0.02 0.02 0.02 0.02 0.02 0.02 0.02 0.02 0.02 0.02 0.02 0.02 0.02 0.02 0.02 0.02 0.02 0.02 0.02 0.02 0.02 0.02 0.02 0.02 0.02 0.02 0.02 0.02 0.02 0.02 0.02 0.02 0.02 0.02 0.02 0.02 0.02 0.02 0.02 0.02 0.02 0.02 0.02 0.02 0.02 0.02 0.02 0.02 0.02 0.02 0.02 0.02 0.02 0.02 0.02 0.02 0.02 0.02 0.02 0.02 0.02 0.02 0.02 0.02 0.02 0.02 0.02 0.02 0.02 0.02 0.02 0.02 0.02 0.02 0.02 0.02 0.02 0.02 0.02 0.02 0.02 0.02 0.02 0.02 0.02 0.02 0.02 0.02 0.02 0.02 0.02 0.02 0.02 0.02 0.02 0.02 0.02 0.02 0.02 0.02 0.02 0.02 0.02 0.02 0.02 0.02 0.02 0.02 0.02 0.02 0.02 0.02 0.02 0.02 0.02 0.02 0.02 0.02 0.02 0.02 0.02 0.0199999 0.0199999 0.0199999 0.0199999 0.0199999 0.0199999 0.0199999 0.0199999 0.0199999 0.0199999 0.0199999 0.0199999 0.0199998 0.0199998 0.0199998 0.0199998 0.0199998 0.0199998 0.0199997 0.0199997 0.0199997 0.0199997 0.0199996 0.0199996 0.0199996 0.0199995 0.0199995 0.0199995 0.0199994 0.0199994 0.0199993 0.0199993 0.0199992 0.0199992 0.0199991 0.019999 0.019999 0.0199989 0.0199988 0.0199988 0.0199987 0.0199986 0.0199985 0.0199984 0.0199984 0.0199983 0.0199982 0.0199981 0.019998 0.019998 0.0199979 0.0199978 0.0199977 0.0199977 0.0199976 0.0199976 0.0199975 0.0199975 0.0199975 0.0199975 0.0199975 0.0199976 0.0199977 0.0199978 0.0199979 0.0199981 0.0199983 0.0199985 0.0199988 0.0199991 0.0199995 0.02 0.0200005 0.0200011 0.0200018 0.0200025 0.0200034 0.0200043 0.0200053 0.0200065 0.0200077 0.0200091 0.0200106 0.0200122 0.020014 0.0200159 0.020018 0.0200202 0.0200226 0.0200252 0.0200279 0.0200309 0.020034 0.0200373 0.0200409 0.0200447 0.0200487 0.0200529 0.0200573 0.020062 0.0200669 0.0200721 0.0200775 0.0200831 0.0200891 0.0200952 0.0201017 0.0201084 0.0201153 0.0201225 0.02013 0.0201377 0.0201456 0.0201536 0.020162 0.0201706 0.0201795 0.0201886 0.020198 0.0202076 0.0202175 0.0202275 0.0202378 0.0202483 0.0202589 0.0202698 0.0202808 0.0202919 0.0203033 0.0203147 0.0203263 0.020338 0.0203498 0.0203616 0.0203736 0.0203856 0.0203976 0.0204096 0.0204216 0.0204337 0.0204456 0.0204575 0.0204693 0.0204811 0.0204927 0.0205041 0.0205154 0.0205265 0.0205374 0.020548 0.0205584 0.0205685 0.0205784 0.0205879 0.020597 0.0206058 0.0206142 0.0206222 0.0206297 0.0206368 0.0206435 0.0206496 0.0206553 0.0206604 0.020665 0.0206691 0.0206726 0.0206755 0.0206779 0.0206797 0.0206809 0.0206815 0.0206815 0.0206811 0.02068 0.0206784 0.0206764 0.0206738 0.0206706 0.0206671 0.0206634 0.0206591 0.0206545 0.0206495 0.0206441 0.0206384 0.0206324 0.0206261 0.0206195 0.0206128 0.0206058 0.0205986 0.0205914 0.020584 0.0205765 0.020569 0.0205615 0.0205541 0.0205466 0.0205393 0.020532 0.0205249 0.0205179 0.0205112 0.0205046 0.0204982 0.0204921 0.0204863 0.0204807 0.0204755 0.0204706 0.020466 0.0204617 0.0204578 0.0204542 0.020451 0.0204482 0.0204458 0.0204437 0.020442 0.0204407 0.0204397 0.0204391 0.0204389 0.020439 0.0204394 0.0204402 0.0204412 0.0204425 0.0204441 0.020446 0.020448 0.0204502 0.0204526 0.0204551 0.0204576 0.0204602 0.0204628 0.0204653 0.0204677 0.0204699 0.0204719 0.0204737 0.0204751 0.020476 0.0204765 0.0204764 0.0204756 0.0204741 0.0204717 0.0204682 0.0204637 0.0204579 0.0204507 0.0204419 0.0204313 0.0204188 0.0204041 0.0203869 0.0203671 0.0203445 0.0203188 0.0202899 0.0202575 0.0202216 0.020182 0.0201388 0.0200918 0.0200411 0.0199867 0.0199286 0.0198667 0.0198011 0.0197317 0.0196586 0.0195818 0.0195012 0.0194167 0.0193285 0.0192364 0.0191404 0.0190405 0.0189366 0.0188285 0.0187157 0.0185978 0.0184738 0.0183422 0.0182009 0.0180457 0.0178691 0.0176657 0.0174426 0.0171954 0.0169186 0.0166066 0.0162539 0.0158547 0.0154027 0.0148914 0.014314 0.0136658 0.0129461 0.0121633 0.0113524 0.0106034 0.00999652 0.00886805 0.00758161 0.00640532 0.00516773 0.00391256 0.00311348 0 0 0 0 0 0 0 0 0 0 0 0 0 0 0 0 0 0 0 0 0 0 0 0 0 0 0 0 0 0 0 0 0 0 0 0 0 0 0 0 0 0 0 0 0 0 0 0 0 0 0 0 0 0 0 0 0 0 0 0 0 0 0 0 0 0 0 0 0 0 0 0 0 0 0 0 0 0 0 0 0 0 0 0 0 0 0 0 0 0 0 0 0 0 0 0 0 0 0 0 0 0 0 0 0 0 0 0 0 0 0 0 0 0 0 0 0 0 0 0 0 0 0 0 0 0 0 0 0 0 0 0 0 0 0 0 0 0 0 0 0 0 0 0 0 0 0 0 0 0 0 0 0 0 0 0 0 0 0 0 0 0 0 0 0 0 0 0 0 0 0 0 0 0 
0.02 0.02 0.02 0.02 0.02 0.02 0.02 0.02 0.02 0.02 0.02 0.02 0.02 0.02 0.02 0.02 0.02 0.02 0.02 0.02 0.02 0.02 0.02 0.02 0.02 0.02 0.02 0.02 0.02 0.02 0.02 0.02 0.02 0.02 0.02 0.02 0.02 0.02 0.02 0.02 0.02 0.02 0.02 0.02 0.02 0.02 0.02 0.02 0.02 0.02 0.02 0.02 0.02 0.02 0.02 0.02 0.02 0.02 0.02 0.02 0.02 0.02 0.02 0.02 0.02 0.02 0.02 0.02 0.02 0.02 0.02 0.02 0.02 0.02 0.02 0.02 0.02 0.02 0.02 0.02 0.02 0.02 0.02 0.02 0.02 0.02 0.02 0.02 0.02 0.02 0.02 0.02 0.02 0.02 0.02 0.02 0.02 0.02 0.02 0.02 0.02 0.02 0.02 0.02 0.02 0.02 0.02 0.02 0.02 0.02 0.02 0.02 0.02 0.02 0.02 0.02 0.02 0.02 0.02 0.02 0.02 0.02 0.02 0.02 0.02 0.02 0.02 0.02 0.02 0.02 0.02 0.02 0.02 0.02 0.0199999 0.0199999 0.0199999 0.0199999 0.0199999 0.0199999 0.0199999 0.0199999 0.0199999 0.0199999 0.0199999 0.0199999 0.0199998 0.0199998 0.0199998 0.0199998 0.0199998 0.0199998 0.0199997 0.0199997 0.0199997 0.0199997 0.0199996 0.0199996 0.0199996 0.0199995 0.0199995 0.0199995 0.0199994 0.0199994 0.0199993 0.0199993 0.0199992 0.0199992 0.0199991 0.019999 0.019999 0.0199989 0.0199988 0.0199988 0.0199987 0.0199986 0.0199985 0.0199985 0.0199984 0.0199983 0.0199982 0.0199981 0.0199981 0.019998 0.0199979 0.0199978 0.0199978 0.0199977 0.0199976 0.0199976 0.0199976 0.0199975 0.0199975 0.0199975 0.0199976 0.0199976 0.0199977 0.0199978 0.0199979 0.0199981 0.0199983 0.0199985 0.0199988 0.0199992 0.0199996 0.02 0.0200005 0.0200011 0.0200018 0.0200025 0.0200034 0.0200043 0.0200053 0.0200064 0.0200077 0.0200091 0.0200105 0.0200122 0.0200139 0.0200158 0.0200179 0.0200201 0.0200225 0.020025 0.0200278 0.0200307 0.0200338 0.0200372 0.0200407 0.0200444 0.0200484 0.0200526 0.020057 0.0200616 0.0200665 0.0200717 0.020077 0.0200827 0.0200885 0.0200947 0.0201011 0.0201077 0.0201146 0.0201218 0.0201292 0.0201368 0.0201447 0.0201528 0.0201611 0.0201696 0.0201784 0.0201875 0.0201968 0.0202064 0.0202161 0.0202261 0.0202363 0.0202467 0.0202573 0.0202681 0.020279 0.0202901 0.0203013 0.0203127 0.0203242 0.0203358 0.0203475 0.0203593 0.0203711 0.020383 0.0203949 0.0204069 0.0204188 0.0204307 0.0204425 0.0204543 0.0204661 0.0204777 0.0204892 0.0205005 0.0205117 0.0205227 0.0205334 0.020544 0.0205542 0.0205642 0.0205739 0.0205833 0.0205923 0.020601 0.0206092 0.0206171 0.0206245 0.0206314 0.0206379 0.0206439 0.0206494 0.0206544 0.0206589 0.0206628 0.0206662 0.020669 0.0206713 0.020673 0.0206741 0.0206747 0.0206748 0.0206744 0.0206734 0.0206719 0.02067 0.0206676 0.0206648 0.0206616 0.0206579 0.0206538 0.0206493 0.0206444 0.0206391 0.0206336 0.0206277 0.0206215 0.0206152 0.0206085 0.0206018 0.0205948 0.0205877 0.0205806 0.0205733 0.0205661 0.0205588 0.0205516 0.0205444 0.0205372 0.0205302 0.0205233 0.0205166 0.02051 0.0205037 0.0204976 0.0204917 0.0204861 0.0204807 0.0204757 0.020471 0.0204666 0.0204625 0.0204587 0.0204554 0.0204523 0.0204496 0.0204473 0.0204454 0.0204438 0.0204426 0.0204417 0.0204411 0.020441 0.0204411 0.0204416 0.0204423 0.0204434 0.0204447 0.0204463 0.0204481 0.0204501 0.0204522 0.0204546 0.020457 0.0204595 0.020462 0.0204645 0.0204669 0.0204692 0.0204714 0.0204733 0.020475 0.0204763 0.0204772 0.0204777 0.0204775 0.0204767 0.0204752 0.0204728 0.0204694 0.020465 0.0204593 0.0204522 0.0204436 0.0204332 0.0204208 0.0204063 0.0203895 0.02037 0.0203477 0.0203224 0.0202939 0.020262 0.0202266 0.0201876 0.020145 0.0200987 0.0200488 0.0199951 0.0199377 0.0198766 0.0198117 0.0197431 0.0196707 0.0195945 0.0195146 0.0194308 0.0193432 0.0192517 0.0191564 0.0190571 0.0189538 0.0188463 0.0187341 0.0186166 0.0184927 0.0183611 0.0182192 0.0180629 0.0178872 0.0176881 0.0174665 0.0172196 0.016943 0.0166315 0.0162796 0.0158815 0.015431 0.0149217 0.0143471 0.0137028 0.0129904 0.0122245 0.0114421 0.0106703 0.00985922 0.0087975 0.00760903 0.006408 0.00517426 0.00395559 0.00281897 0.00152404 0.00017057 -0.00133534 -0.00266594 0 0 0 0 0 0 0 0 0 0 0 0 0 0 0 0 0 0 0 0 0 0 0 0 0 0 0 0 0 0 0 0 0 0 0 0 0 0 0 0 0 0 0 0 0 0 0 0 0 0 0 0 0 0 0 0 0 0 0 0 0 0 0 0 0 0 0 0 0 0 0 0 0 0 0 0 0 0 0 0 0 0 0 0 0 0 0 0 0 0 0 0 0 0 0 0 0 0 0 0 0 0 0 0 0 0 0 0 0 0 0 0 0 0 0 0 0 0 0 0 0 0 0 0 0 0 0 0 0 0 0 0 0 0 0 0 0 0 0 0 0 0 0 0 0 0 0 0 0 0 0 0 0 0 0 0 0 0 0 0 0 0 0 0 0 0 0 0 0 2.1684e-19 
0.02 0.02 0.02 0.02 0.02 0.02 0.02 0.02 0.02 0.02 0.02 0.02 0.02 0.02 0.02 0.02 0.02 0.02 0.02 0.02 0.02 0.02 0.02 0.02 0.02 0.02 0.02 0.02 0.02 0.02 0.02 0.02 0.02 0.02 0.02 0.02 0.02 0.02 0.02 0.02 0.02 0.02 0.02 0.02 0.02 0.02 0.02 0.02 0.02 0.02 0.02 0.02 0.02 0.02 0.02 0.02 0.02 0.02 0.02 0.02 0.02 0.02 0.02 0.02 0.02 0.02 0.02 0.02 0.02 0.02 0.02 0.02 0.02 0.02 0.02 0.02 0.02 0.02 0.02 0.02 0.02 0.02 0.02 0.02 0.02 0.02 0.02 0.02 0.02 0.02 0.02 0.02 0.02 0.02 0.02 0.02 0.02 0.02 0.02 0.02 0.02 0.02 0.02 0.02 0.02 0.02 0.02 0.02 0.02 0.02 0.02 0.02 0.02 0.02 0.02 0.02 0.02 0.02 0.02 0.02 0.02 0.02 0.02 0.02 0.02 0.02 0.02 0.02 0.02 0.02 0.02 0.02 0.02 0.02 0.0199999 0.0199999 0.0199999 0.0199999 0.0199999 0.0199999 0.0199999 0.0199999 0.0199999 0.0199999 0.0199999 0.0199999 0.0199998 0.0199998 0.0199998 0.0199998 0.0199998 0.0199998 0.0199997 0.0199997 0.0199997 0.0199997 0.0199996 0.0199996 0.0199996 0.0199995 0.0199995 0.0199995 0.0199994 0.0199994 0.0199993 0.0199993 0.0199992 0.0199992 0.0199991 0.0199991 0.019999 0.0199989 0.0199989 0.0199988 0.0199987 0.0199986 0.0199986 0.0199985 0.0199984 0.0199983 0.0199982 0.0199982 0.0199981 0.019998 0.0199979 0.0199979 0.0199978 0.0199977 0.0199977 0.0199976 0.0199976 0.0199976 0.0199976 0.0199976 0.0199976 0.0199977 0.0199977 0.0199978 0.019998 0.0199981 0.0199983 0.0199986 0.0199989 0.0199992 0.0199996 0.0200001 0.0200006 0.0200012 0.0200018 0.0200026 0.0200034 0.0200043 0.0200053 0.0200065 0.0200077 0.0200091 0.0200105 0.0200121 0.0200139 0.0200158 0.0200178 0.02002 0.0200224 0.0200249 0.0200276 0.0200305 0.0200336 0.0200369 0.0200404 0.0200442 0.0200481 0.0200522 0.0200566 0.0200612 0.0200661 0.0200711 0.0200765 0.020082 0.0200879 0.0200939 0.0201003 0.0201069 0.0201137 0.0201208 0.0201281 0.0201357 0.0201435 0.0201515 0.0201598 0.0201683 0.020177 0.020186 0.0201952 0.0202046 0.0202143 0.0202242 0.0202343 0.0202445 0.020255 0.0202657 0.0202765 0.0202875 0.0202986 0.0203098 0.0203212 0.0203327 0.0203442 0.0203559 0.0203676 0.0203793 0.0203911 0.0204029 0.0204147 0.0204264 0.0204381 0.0204497 0.0204613 0.0204727 0.0204841 0.0204952 0.0205062 0.020517 0.0205276 0.020538 0.0205481 0.0205579 0.0205674 0.0205765 0.0205854 0.0205938 0.0206019 0.0206095 0.0206167 0.0206235 0.0206298 0.0206356 0.0206409 0.0206457 0.02065 0.0206538 0.0206571 0.0206598 0.020662 0.0206637 0.0206649 0.0206655 0.0206656 0.0206652 0.0206644 0.0206631 0.0206614 0.0206591 0.0206564 0.0206532 0.0206497 0.0206457 0.0206413 0.0206366 0.0206315 0.0206262 0.0206205 0.0206146 0.0206085 0.0206021 0.0205956 0.0205889 0.0205821 0.0205753 0.0205683 0.0205614 0.0205544 0.0205475 0.0205406 0.0205338 0.0205271 0.0205206 0.0205142 0.020508 0.020502 0.0204962 0.0204906 0.0204853 0.0204803 0.0204755 0.0204711 0.0204669 0.0204631 0.0204596 0.0204565 0.0204537 0.0204512 0.0204491 0.0204473 0.0204459 0.0204448 0.0204441 0.0204436 0.0204435 0.0204438 0.0204443 0.0204451 0.0204461 0.0204475 0.020449 0.0204508 0.0204528 0.0204549 0.0204571 0.0204595 0.0204619 0.0204643 0.0204667 0.020469 0.0204712 0.0204733 0.0204752 0.0204767 0.020478 0.0204788 0.0204792 0.020479 0.0204782 0.0204766 0.0204743 0.020471 0.0204666 0.020461 0.020454 0.0204456 0.0204354 0.0204233 0.020409 0.0203924 0.0203733 0.0203514 0.0203265 0.0202984 0.0202671 0.0202324 0.0201942 0.0201524 0.020107 0.020058 0.0200054 0.0199491 0.0198891 0.0198255 0.019758 0.0196869 0.0196119 0.0195332 0.0194506 0.0193642 0.019274 0.01918 0.019082 0.01898 0.0188737 0.0187626 0.0186462 0.0185231 0.018392 0.01825 0.0180937 0.017919 0.0177226 0.0175028 0.0172571 0.0169815 0.0166711 0.0163207 0.0159246 0.0154768 0.0149711 0.0144015 0.0137644 0.0130638 0.0123156 0.0115428 0.010742 0.00986258 0.00882562 0.00767502 0.00647129 0.00523637 0.00399693 0.00275999 0.00144643 0.000121619 -0.00115716 -0.0028546 -0.00458457 -0.00720743 0 0 0 0 0 0 0 0 0 0 0 0 0 0 0 0 0 0 0 0 0 0 0 0 0 0 0 0 0 0 0 0 0 0 0 0 0 0 0 0 0 0 0 0 0 0 0 0 0 0 0 0 0 0 0 0 0 0 0 0 0 0 0 0 0 0 0 0 0 0 0 0 0 0 0 0 0 0 0 0 0 0 0 0 0 0 0 0 0 0 0 0 0 0 0 0 0 0 0 0 0 0 0 0 0 0 0 0 0 0 0 0 0 0 0 0 0 0 0 0 0 0 0 0 0 0 0 0 0 0 0 0 0 0 0 0 0 0 0 0 0 0 0 0 0 0 0 0 0 0 0 0 0 0 0 0 0 0 0 0 0 0 0 0 0 0 0 -5.96311e-19 
0.02 0.02 0.02 0.02 0.02 0.02 0.02 0.02 0.02 0.02 0.02 0.02 0.02 0.02 0.02 0.02 0.02 0.02 0.02 0.02 0.02 0.02 0.02 0.02 0.02 0.02 0.02 0.02 0.02 0.02 0.02 0.02 0.02 0.02 0.02 0.02 0.02 0.02 0.02 0.02 0.02 0.02 0.02 0.02 0.02 0.02 0.02 0.02 0.02 0.02 0.02 0.02 0.02 0.02 0.02 0.02 0.02 0.02 0.02 0.02 0.02 0.02 0.02 0.02 0.02 0.02 0.02 0.02 0.02 0.02 0.02 0.02 0.02 0.02 0.02 0.02 0.02 0.02 0.02 0.02 0.02 0.02 0.02 0.02 0.02 0.02 0.02 0.02 0.02 0.02 0.02 0.02 0.02 0.02 0.02 0.02 0.02 0.02 0.02 0.02 0.02 0.02 0.02 0.02 0.02 0.02 0.02 0.02 0.02 0.02 0.02 0.02 0.02 0.02 0.02 0.02 0.02 0.02 0.02 0.02 0.02 0.02 0.02 0.02 0.02 0.02 0.02 0.02 0.02 0.02 0.02 0.02 0.02 0.02 0.02 0.0199999 0.0199999 0.0199999 0.0199999 0.0199999 0.0199999 0.0199999 0.0199999 0.0199999 0.0199999 0.0199999 0.0199998 0.0199998 0.0199998 0.0199998 0.0199998 0.0199998 0.0199997 0.0199997 0.0199997 0.0199997 0.0199996 0.0199996 0.0199996 0.0199995 0.0199995 0.0199995 0.0199994 0.0199994 0.0199993 0.0199993 0.0199992 0.0199992 0.0199991 0.0199991 0.019999 0.0199989 0.0199989 0.0199988 0.0199987 0.0199987 0.0199986 0.0199985 0.0199984 0.0199984 0.0199983 0.0199982 0.0199981 0.019998 0.019998 0.0199979 0.0199978 0.0199978 0.0199977 0.0199977 0.0199977 0.0199976 0.0199976 0.0199976 0.0199977 0.0199977 0.0199978 0.0199979 0.019998 0.0199982 0.0199984 0.0199987 0.019999 0.0199993 0.0199997 0.0200001 0.0200007 0.0200012 0.0200019 0.0200026 0.0200035 0.0200044 0.0200054 0.0200065 0.0200077 0.0200091 0.0200105 0.0200121 0.0200139 0.0200157 0.0200177 0.0200199 0.0200223 0.0200248 0.0200275 0.0200304 0.0200334 0.0200367 0.0200401 0.0200438 0.0200477 0.0200518 0.0200561 0.0200607 0.0200655 0.0200705 0.0200757 0.0200813 0.020087 0.020093 0.0200993 0.0201058 0.0201125 0.0201195 0.0201268 0.0201343 0.020142 0.0201499 0.0201581 0.0201664 0.0201751 0.0201839 0.020193 0.0202023 0.0202119 0.0202216 0.0202315 0.0202417 0.020252 0.0202625 0.0202732 0.020284 0.0202949 0.020306 0.0203172 0.0203285 0.0203399 0.0203513 0.0203629 0.0203744 0.020386 0.0203976 0.0204092 0.0204207 0.0204322 0.0204436 0.0204549 0.0204662 0.0204773 0.0204882 0.020499 0.0205095 0.0205199 0.02053 0.0205398 0.0205494 0.0205586 0.0205675 0.0205761 0.0205843 0.0205921 0.0205995 0.0206065 0.020613 0.0206191 0.0206247 0.0206299 0.0206346 0.0206387 0.0206424 0.0206456 0.0206483 0.0206505 0.0206521 0.0206533 0.020654 0.0206542 0.0206539 0.0206532 0.0206519 0.0206502 0.0206481 0.0206455 0.0206425 0.020639 0.0206352 0.0206311 0.0206266 0.0206217 0.0206166 0.0206112 0.0206056 0.0205998 0.0205937 0.0205875 0.0205812 0.0205748 0.0205683 0.0205618 0.0205552 0.0205487 0.0205421 0.0205357 0.0205293 0.020523 0.0205169 0.0205109 0.0205051 0.0204995 0.0204942 0.020489 0.0204841 0.0204794 0.0204751 0.020471 0.0204672 0.0204637 0.0204606 0.0204577 0.0204552 0.020453 0.0204511 0.0204495 0.0204483 0.0204474 0.0204468 0.0204465 0.0204465 0.0204468 0.0204474 0.0204482 0.0204493 0.0204507 0.0204522 0.020454 0.0204559 0.0204579 0.0204601 0.0204623 0.0204646 0.0204669 0.0204692 0.0204714 0.0204735 0.0204754 0.0204772 0.0204786 0.0204798 0.0204805 0.0204808 0.0204805 0.0204797 0.0204781 0.0204758 0.0204725 0.0204682 0.0204627 0.0204559 0.0204476 0.0204376 0.0204257 0.0204118 0.0203955 0.0203767 0.0203552 0.0203308 0.0203033 0.0202727 0.0202388 0.0202015 0.0201608 0.0201167 0.020069 0.0200178 0.019963 0.0199047 0.0198427 0.019777 0.0197076 0.0196344 0.0195575 0.0194768 0.0193923 0.019304 0.0192119 0.0191158 0.0190157 0.0189111 0.0188017 0.0186867 0.0185648 0.0184344 0.0182929 0.0181371 0.0179635 0.0177692 0.0175515 0.0173075 0.0170336 0.0167252 0.0163772 0.0159841 0.0155404 0.0150402 0.0144784 0.0138525 0.013167 0.0124342 0.0116645 0.0108466 0.00994216 0.00891659 0.00778538 0.00658471 0.00533856 0.00406176 0.00275412 0.00139068 -1.02435e-05 -0.00145774 -0.00301313 -0.00467761 -0.00682496 -0.00975163 -0.0144024 0 0 0 0 0 0 0 0 0 0 0 0 0 0 0 0 0 0 0 0 0 0 0 0 0 0 0 0 0 0 0 0 0 0 0 0 0 0 0 0 0 0 0 0 0 0 0 0 0 0 0 0 0 0 0 0 0 0 0 0 0 0 0 0 0 0 0 0 0 0 0 0 0 0 0 0 0 0 0 0 0 0 0 0 0 0 0 0 0 0 0 0 0 0 0 0 0 0 0 0 0 0 0 0 0 0 0 0 0 0 0 0 0 0 0 0 0 0 0 0 0 0 0 0 0 0 0 0 0 0 0 0 0 0 0 0 0 0 0 0 0 0 0 0 0 0 0 0 0 0 0 0 0 0 0 0 0 0 0 0 0 0 0 0 -0.00417217 -4.33681e-19 
0.02 0.02 0.02 0.02 0.02 0.02 0.02 0.02 0.02 0.02 0.02 0.02 0.02 0.02 0.02 0.02 0.02 0.02 0.02 0.02 0.02 0.02 0.02 0.02 0.02 0.02 0.02 0.02 0.02 0.02 0.02 0.02 0.02 0.02 0.02 0.02 0.02 0.02 0.02 0.02 0.02 0.02 0.02 0.02 0.02 0.02 0.02 0.02 0.02 0.02 0.02 0.02 0.02 0.02 0.02 0.02 0.02 0.02 0.02 0.02 0.02 0.02 0.02 0.02 0.02 0.02 0.02 0.02 0.02 0.02 0.02 0.02 0.02 0.02 0.02 0.02 0.02 0.02 0.02 0.02 0.02 0.02 0.02 0.02 0.02 0.02 0.02 0.02 0.02 0.02 0.02 0.02 0.02 0.02 0.02 0.02 0.02 0.02 0.02 0.02 0.02 0.02 0.02 0.02 0.02 0.02 0.02 0.02 0.02 0.02 0.02 0.02 0.02 0.02 0.02 0.02 0.02 0.02 0.02 0.02 0.02 0.02 0.02 0.02 0.02 0.02 0.02 0.02 0.02 0.02 0.02 0.02 0.02 0.02 0.02 0.0199999 0.0199999 0.0199999 0.0199999 0.0199999 0.0199999 0.0199999 0.0199999 0.0199999 0.0199999 0.0199999 0.0199998 0.0199998 0.0199998 0.0199998 0.0199998 0.0199998 0.0199997 0.0199997 0.0199997 0.0199997 0.0199996 0.0199996 0.0199996 0.0199996 0.0199995 0.0199995 0.0199994 0.0199994 0.0199994 0.0199993 0.0199993 0.0199992 0.0199991 0.0199991 0.019999 0.019999 0.0199989 0.0199988 0.0199988 0.0199987 0.0199986 0.0199985 0.0199985 0.0199984 0.0199983 0.0199982 0.0199982 0.0199981 0.019998 0.019998 0.0199979 0.0199978 0.0199978 0.0199978 0.0199977 0.0199977 0.0199977 0.0199977 0.0199978 0.0199978 0.0199979 0.019998 0.0199981 0.0199983 0.0199985 0.0199988 0.0199991 0.0199994 0.0199998 0.0200002 0.0200008 0.0200013 0.020002 0.0200027 0.0200035 0.0200045 0.0200055 0.0200066 0.0200078 0.0200091 0.0200105 0.0200121 0.0200138 0.0200157 0.0200177 0.0200198 0.0200221 0.0200246 0.0200273 0.0200301 0.0200331 0.0200364 0.0200398 0.0200434 0.0200472 0.0200513 0.0200555 0.02006 0.0200647 0.0200697 0.0200749 0.0200803 0.0200859 0.0200918 0.020098 0.0201044 0.020111 0.0201179 0.0201251 0.0201324 0.02014 0.0201479 0.0201559 0.0201642 0.0201726 0.0201814 0.0201903 0.0201994 0.0202088 0.0202184 0.0202282 0.0202381 0.0202482 0.0202585 0.020269 0.0202796 0.0202904 0.0203012 0.0203122 0.0203233 0.0203344 0.0203457 0.020357 0.0203683 0.0203796 0.0203909 0.0204023 0.0204135 0.0204248 0.0204359 0.020447 0.0204579 0.0204687 0.0204794 0.0204899 0.0205001 0.0205102 0.02052 0.0205295 0.0205388 0.0205478 0.0205564 0.0205647 0.0205726 0.0205801 0.0205873 0.020594 0.0206004 0.0206062 0.0206117 0.0206167 0.0206212 0.0206253 0.0206288 0.020632 0.0206346 0.0206367 0.0206384 0.0206396 0.0206403 0.0206405 0.0206403 0.0206396 0.0206384 0.0206368 0.0206347 0.0206323 0.0206294 0.0206262 0.0206226 0.0206187 0.0206144 0.0206099 0.0206051 0.0206 0.0205947 0.0205892 0.0205836 0.0205778 0.0205719 0.0205659 0.0205599 0.0205538 0.0205477 0.0205416 0.0205356 0.0205297 0.0205238 0.020518 0.0205124 0.0205069 0.0205016 0.0204965 0.0204916 0.0204869 0.0204825 0.0204783 0.0204743 0.0204707 0.0204673 0.0204642 0.0204614 0.0204589 0.0204567 0.0204548 0.0204532 0.0204519 0.0204509 0.0204502 0.0204498 0.0204496 0.0204498 0.0204502 0.0204508 0.0204517 0.0204528 0.0204542 0.0204557 0.0204574 0.0204592 0.0204612 0.0204632 0.0204654 0.0204675 0.0204697 0.0204718 0.0204739 0.0204758 0.0204776 0.0204792 0.0204805 0.0204815 0.0204821 0.0204823 0.020482 0.0204811 0.0204795 0.0204771 0.0204739 0.0204696 0.0204643 0.0204576 0.0204494 0.0204396 0.020428 0.0204143 0.0203983 0.0203799 0.0203588 0.020335 0.0203082 0.0202784 0.0202455 0.0202094 0.02017 0.0201274 0.0200814 0.020032 0.0199792 0.0199229 0.019863 0.0197995 0.0197324 0.0196617 0.0195872 0.019509 0.019427 0.0193413 0.0192517 0.0191581 0.0190603 0.0189581 0.0188507 0.0187375 0.0186171 0.0184877 0.018347 0.0181921 0.0180198 0.0178273 0.0176117 0.01737 0.0170984 0.0167925 0.0164477 0.0160586 0.0156202 0.0151276 0.0145767 0.0139657 0.0132977 0.0125796 0.0118142 0.0109884 0.0100758 0.00905792 0.00793986 0.00674145 0.00548036 0.00416423 0.00279363 0.00135789 -0.00013993 -0.00169406 -0.00336746 -0.00516794 -0.00728813 -0.00986882 -0.0133268 -0.0197051 -0.0269803 0 0 0 0 0 0 0 0 0 0 0 0 0 0 0 0 0 0 0 0 0 0 0 0 0 0 0 0 0 0 0 0 0 0 0 0 0 0 0 0 0 0 0 0 0 0 0 0 0 0 0 0 0 0 0 0 0 0 0 0 0 0 0 0 0 0 0 0 0 0 0 0 0 0 0 0 0 0 0 0 0 0 0 0 0 0 0 0 0 0 0 0 0 0 0 0 0 0 0 0 0 0 0 0 0 0 0 0 0 0 0 0 0 0 0 0 0 0 0 0 0 0 0 0 0 0 0 0 0 0 0 0 0 0 0 0 0 0 0 0 0 0 0 0 0 0 0 0 0 0 0 0 0 0 0 0 0 0 0 0 0 -0.0158554 -0.00783954 -1.51788e-18 