# vtk DataFile Version 2.0
iteration 1863
ASCII

DATASET STRUCTURED_POINTS
DIMENSIONS 621 64 1
ORIGIN 0 0 0
SPACING 0.00161031 0.00161031 0.00161031

POINT_DATA 39744
SCALARS P float 1
LOOKUP_TABLE default
0 0 0 0 0 0 0 0 0 0 0 0 0 0 0 0 0 0 0 0 0 0 0 0 0 0 0 0 0 0 0 0 0 0 0 0 0 0 0 0 0 0 0 0 0 0 0 0 0 0 0 0 0 0 0 0 0 0 0 0 0 0 0 0 0 0 0 0 0 0 0 0 0 0 0 0 0 0 0 0 0 0 0 0 0 0 0 0 0 0 0 0 0 0 0 0 0 0 0 0 0 0 0 0 0 0 0 0 0 0 0 0 0 0 0 0 0 0 0 0 0 0 0 0 0 0 0 0 0 0 0 0 0 0 0 0 0 0 0 0 0 0 0 0 0 0 0 0 0 0 0 0 0 0 0 0 0 0 0 0 0 0 0 0 0 0 0 0 0 0 0 0 0 0 0 0 0 0 0 0 0 0 0 0 0 0 0 0 0 0 0 0 0 0 0 0 0 0 0 0 0 0 0 0 0 0 0 0 0 0 0 0 0 0 0 0 0 0 0 0 0 0 0 0 0 0 0 0 0 0 0 0 0 0 0 0 0 0 0 0 0 0 0 0 0 0 0 0 0 0 0 0 0 0 0 0 0 0 0 0 0 0 0 0 0 0 0 0 0 0 0 0 0 0 0 0 0 0 0 0 0 0 0 0 0 0 0 0 0 0 0 0 0 0 0 0 0 0 0 0 0 0 0 0 0 0 0 0 0 0 0 0 0 0 0 0 0 0 0 0 0 0 0 0 0 0 0 0 0 0 0 0 0 0 0 0 0 0 0 0 0 0 0 0 0 0 0 0 0 0 0 0 0 0 0 0 0 0 0 0 0 0 0 0 0 0 0 0 0 0 0 0 0 0 0 0 0 0 0 0 0 0 0 0 0 0 0 0 0 0 0 0 0 0 0 0 0 0 0 0 0 0 0 0 0 0 0 0 0 0 0 0 0 0 0 0 0 0 0 0 0 0 0 0 0 0 0 0 0 0 0 0 0 0 0 0 0 0 0 0 0 0 0 0 0 0 0 0 0 0 0 0 0 0 0 0 0 0 0 0 0 0 0 0 0 0 0 0 0 0 0 0 0 0 0 0 0 0 0 0 0 0 0 0 0 0 0 0 0 0 0 0 0 0 0 0 0 0 0 0 0 0 0 0 0 0 0 0 0 0 0 0 0 0 0 0 0 0 0 0 0 0 0 0 0 0 0 0 0 0 0 0 0 0 0 0 0 0 0 0 0 0 0 0 0 0 0 0 0 0 0 0 0 0 0 0 0 0 0 0 0 0 0 0 0 0 0 0 0 0 0 0 0 0 0 0 0 0 0 0 0 0 0 0 0 0 0 0 0 0 0 0 0 0 0 0 0 0 0 0 0 0 0 0 0 0 0 0 0 0 0 0 0 0 0 0 0 0 0 0 0 
0.02 0.02 0.02 0.02 0.02 0.02 0.02 0.02 0.02 0.02 0.02 0.02 0.02 0.02 0.02 0.02 0.02 0.02 0.02 0.02 0.02 0.02 0.02 0.02 0.02 0.02 0.02 0.02 0.02 0.02 0.02 0.02 0.02 0.02 0.02 0.02 0.02 0.02 0.02 0.02 0.02 0.02 0.02 0.02 0.02 0.02 0.02 0.02 0.02 0.02 0.02 0.02 0.02 0.02 0.02 0.02 0.02 0.02 0.02 0.02 0.02 0.02 0.02 0.02 0.02 0.02 0.02 0.02 0.02 0.02 0.02 0.02 0.02 0.02 0.02 0.02 0.02 0.02 0.02 0.02 0.02 0.02 0.02 0.02 0.02 0.02 0.02 0.02 0.02 0.02 0.02 0.02 0.02 0.02 0.02 0.02 0.02 0.02 0.02 0.02 0.02 0.02 0.02 0.02 0.02 0.02 0.02 0.02 0.02 0.02 0.02 0.02 0.02 0.02 0.02 0.02 0.02 0.02 0.02 0.02 0.02 0.02 0.02 0.02 0.02 0.02 0.02 0.02 0.02 0.02 0.02 0.02 0.02 0.02 0.02 0.02 0.02 0.02 0.02 0.02 0.02 0.02 0.02 0.02 0.02 0.02 0.0200001 0.0200001 0.0200001 0.0200001 0.0200001 0.0200001 0.0200001 0.0200001 0.0200001 0.0200001 0.0200002 0.0200002 0.0200002 0.0200002 0.0200002 0.0200003 0.0200003 0.0200003 0.0200003 0.0200004 0.0200004 0.0200005 0.0200005 0.0200006 0.0200006 0.0200007 0.0200007 0.0200008 0.0200009 0.020001 0.0200011 0.0200012 0.0200013 0.0200014 0.0200015 0.0200017 0.0200018 0.020002 0.0200021 0.0200023 0.0200025 0.0200028 0.020003 0.0200032 0.0200035 0.0200038 0.0200041 0.0200045 0.0200048 0.0200052 0.0200056 0.020006 0.0200065 0.020007 0.0200075 0.020008 0.0200086 0.0200092 0.0200098 0.0200105 0.0200112 0.0200119 0.0200126 0.0200134 0.0200143 0.0200151 0.020016 0.0200169 0.0200179 0.0200188 0.0200198 0.0200209 0.0200219 0.020023 0.0200241 0.0200252 0.0200263 0.0200275 0.0200286 0.0200297 0.0200309 0.020032 0.0200331 0.0200342 0.0200352 0.0200362 0.0200372 0.0200382 0.0200391 0.0200399 0.0200406 0.0200413 0.0200419 0.0200423 0.0200427 0.020043 0.0200431 0.0200431 0.0200429 0.0200426 0.0200419 0.0200412 0.0200403 0.0200392 0.0200379 0.0200363 0.0200346 0.0200326 0.0200304 0.0200278 0.0200251 0.020022 0.0200187 0.0200151 0.0200111 0.0200069 0.0200023 0.0199975 0.0199923 0.0199867 0.0199809 0.0199747 0.0199681 0.0199612 0.019954 0.0199464 0.0199385 0.0199303 0.0199217 0.0199128 0.0199035 0.019894 0.0198841 0.0198739 0.0198635 0.0198527 0.0198417 0.0198304 0.0198189 0.0198071 0.0197952 0.019783 0.0197706 0.0197581 0.0197455 0.0197327 0.0197198 0.0197069 0.0196939 0.0196809 0.0196678 0.0196548 0.0196418 0.0196288 0.019616 0.0196033 0.0195907 0.0195782 0.019566 0.0195539 0.0195421 0.0195305 0.0195192 0.0195082 0.0194975 0.0194871 0.019477 0.0194673 0.019458 0.0194491 0.0194405 0.0194324 0.0194247 0.0194174 0.0194105 0.019404 0.0193979 0.0193926 0.019388 0.0193835 0.0193802 0.0193775 0.0193754 0.0193738 0.0193728 0.0193723 0.0193724 0.019373 0.0193742 0.0193759 0.0193781 0.0193808 0.019384 0.0193878 0.0193919 0.0193966 0.0194017 0.0194072 0.0194131 0.0194195 0.0194262 0.0194333 0.0194408 0.0194485 0.0194566 0.019465 0.0194737 0.0194827 0.0194919 0.0195013 0.019511 0.0195209 0.019531 0.0195412 0.0195516 0.0195621 0.0195728 0.0195836 0.0195945 0.0196054 0.0196165 0.0196275 0.0196387 0.0196498 0.0196609 0.0196721 0.0196832 0.0196942 0.0197053 0.0197162 0.0197271 0.019738 0.0197487 0.0197594 0.01977 0.0197805 0.0197909 0.0198013 0.0198115 0.0198218 0.019832 0.0198422 0.0198524 0.0198627 0.0198731 0.0198836 0.0198944 0.0199053 0.0199166 0.0199283 0.0199405 0.0199531 0.0199664 0.0199804 0.0199952 0.0200108 0.0200273 0.0200447 0.0200632 0.0200827 0.0201032 0.0201247 0.0201472 0.0201706 0.0201947 0.0202193 0.0202444 0.0202696 0.0202947 0.0203194 0.0203433 0.0203662 0.0203876 0.0204071 0.0204245 0.0204394 0.0204514 0.0204602 0.0204658 0.0204679 0.0204663 0.0204611 0.0204521 0.0204394 0.0204228 0.0204019 0.0203765 0.0203455 0.0203071 0.0202587 0.020197 0.0201169 0.0200119 0.0198769 0.0197082 0.0195024 0.0193183 0.0192401 0.0200694 0.0221985 0.0200987 0 0 0 0 0 0 0 0 0 0 0 0 0 0 0 0 0 0 0 0 0 0 0 0 0 0 0 0 0 0 0 0 0 0 0 0 0 0 0 0 0 0 0 0 0 0 0 0 0 0 0 0 0 0 0 0 0 0 0 0 0 0 0 0 0 0 0 0 0 0 0 0 0 0 0 0 0 0 0 0 0 0 0 0 0 0 0 0 0 0 0 0 0 0 0 0 0 0 0 0 0 0 0 0 0 0 0 0 0 0 0 0 0 0 0 0 0 0 0 0 0 0 0 0 0 0 0 0 0 0 0 0 0 0 0 0 0 0 0 0 0 0 0 0 0 0 0 0 0 0 0 0 0 0 0 0 0 0 0 0 0 0 0 0 0 0 0 0 0 0 0 0 0 0 
0.02 0.02 0.02 0.02 0.02 0.02 0.02 0.02 0.02 0.02 0.02 0.02 0.02 0.02 0.02 0.02 0.02 0.02 0.02 0.02 0.02 0.02 0.02 0.02 0.02 0.02 0.02 0.02 0.02 0.02 0.02 0.02 0.02 0.02 0.02 0.02 0.02 0.02 0.02 0.02 0.02 0.02 0.02 0.02 0.02 0.02 0.02 0.02 0.02 0.02 0.02 0.02 0.02 0.02 0.02 0.02 0.02 0.02 0.02 0.02 0.02 0.02 0.02 0.02 0.02 0.02 0.02 0.02 0.02 0.02 0.02 0.02 0.02 0.02 0.02 0.02 0.02 0.02 0.02 0.02 0.02 0.02 0.02 0.02 0.02 0.02 0.02 0.02 0.02 0.02 0.02 0.02 0.02 0.02 0.02 0.02 0.02 0.02 0.02 0.02 0.02 0.02 0.02 0.02 0.02 0.02 0.02 0.02 0.02 0.02 0.02 0.02 0.02 0.02 0.02 0.02 0.02 0.02 0.02 0.02 0.02 0.02 0.02 0.02 0.02 0.02 0.02 0.02 0.02 0.02 0.02 0.02 0.02 0.02 0.02 0.02 0.02 0.02 0.02 0.02 0.02 0.02 0.02 0.02 0.02 0.02 0.02 0.0200001 0.0200001 0.0200001 0.0200001 0.0200001 0.0200001 0.0200001 0.0200001 0.0200001 0.0200002 0.0200002 0.0200002 0.0200002 0.0200002 0.0200003 0.0200003 0.0200003 0.0200003 0.0200004 0.0200004 0.0200005 0.0200005 0.0200005 0.0200006 0.0200007 0.0200007 0.0200008 0.0200009 0.020001 0.0200011 0.0200012 0.0200013 0.0200014 0.0200015 0.0200016 0.0200018 0.020002 0.0200021 0.0200023 0.0200025 0.0200027 0.020003 0.0200032 0.0200035 0.0200038 0.0200041 0.0200044 0.0200048 0.0200052 0.0200056 0.020006 0.0200064 0.0200069 0.0200074 0.020008 0.0200085 0.0200091 0.0200097 0.0200104 0.0200111 0.0200118 0.0200126 0.0200134 0.0200142 0.020015 0.0200159 0.0200168 0.0200178 0.0200187 0.0200197 0.0200208 0.0200218 0.0200229 0.020024 0.0200251 0.0200262 0.0200273 0.0200285 0.0200296 0.0200307 0.0200319 0.020033 0.0200341 0.0200351 0.0200361 0.0200371 0.0200381 0.020039 0.0200398 0.0200405 0.0200412 0.0200418 0.0200423 0.0200427 0.020043 0.0200431 0.0200431 0.0200429 0.0200426 0.0200421 0.0200413 0.0200405 0.0200394 0.0200381 0.0200366 0.0200349 0.020033 0.0200308 0.0200283 0.0200256 0.0200226 0.0200193 0.0200157 0.0200118 0.0200077 0.0200032 0.0199984 0.0199932 0.0199878 0.019982 0.0199758 0.0199694 0.0199625 0.0199554 0.0199479 0.0199401 0.0199319 0.0199234 0.0199146 0.0199054 0.0198959 0.0198861 0.0198761 0.0198657 0.019855 0.0198441 0.0198329 0.0198214 0.0198097 0.0197978 0.0197857 0.0197735 0.019761 0.0197484 0.0197357 0.0197229 0.01971 0.0196971 0.0196841 0.019671 0.019658 0.0196451 0.0196321 0.0196193 0.0196065 0.0195939 0.0195814 0.0195691 0.019557 0.0195451 0.0195335 0.0195221 0.0195109 0.0195001 0.0194896 0.0194794 0.0194695 0.01946 0.0194509 0.0194422 0.0194339 0.0194261 0.0194187 0.0194118 0.0194055 0.0193995 0.0193943 0.0193898 0.0193859 0.0193826 0.0193798 0.0193776 0.019376 0.0193749 0.0193743 0.0193744 0.0193749 0.019376 0.0193777 0.0193798 0.0193825 0.0193856 0.0193893 0.0193934 0.019398 0.019403 0.0194085 0.0194144 0.0194207 0.0194273 0.0194344 0.0194417 0.0194495 0.0194575 0.0194659 0.0194745 0.0194834 0.0194926 0.019502 0.0195116 0.0195215 0.0195315 0.0195417 0.019552 0.0195625 0.0195732 0.0195839 0.0195948 0.0196057 0.0196167 0.0196277 0.0196388 0.0196499 0.019661 0.0196721 0.0196832 0.0196943 0.0197053 0.0197162 0.0197271 0.0197379 0.0197487 0.0197593 0.0197699 0.0197803 0.0197907 0.0198011 0.0198113 0.0198215 0.0198317 0.0198419 0.0198521 0.0198623 0.0198726 0.0198831 0.0198938 0.0199047 0.0199159 0.0199275 0.0199395 0.019952 0.0199652 0.019979 0.0199936 0.020009 0.0200252 0.0200425 0.0200607 0.0200799 0.0201002 0.0201214 0.0201436 0.0201666 0.0201904 0.0202148 0.0202395 0.0202644 0.0202892 0.0203136 0.0203373 0.0203599 0.020381 0.0204004 0.0204176 0.0204322 0.0204441 0.0204528 0.0204583 0.0204602 0.0204586 0.0204534 0.0204444 0.0204316 0.020415 0.0203942 0.0203688 0.0203378 0.0202994 0.0202509 0.0201892 0.0201096 0.0200055 0.0198758 0.0197258 0.0195421 0.0194548 0.0191451 0.0194398 0.0202726 0.019702 0.0187747 0.01807 0.0174539 0.0168075 0.016094 0.0153013 0.0144098 0.0134019 0.0122723 0.011269 0.0104866 0.0112107 0 0 0 0 0 0 0 0 0 0 0 0 0 0 0 0 0 0 0 0 0 0 0 0 0 0 0 0 0 0 0 0 0 0 0 0 0 0 0 0 0 0 0 0 0 0 0 0 0 0 0 0 0 0 0 0 0 0 0 0 0 0 0 0 0 0 0 0 0 0 0 0 0 0 0 0 0 0 0 0 0 0 0 0 0 0 0 0 0 0 0 0 0 0 0 0 0 0 0 0 0 0 0 0 0 0 0 0 0 0 0 0 0 0 0 0 0 0 0 0 0 0 0 0 0 0 0 0 0 0 0 0 0 0 0 0 0 0 0 0 0 0 0 0 0 0 0 0 0 0 0 0 0 0 0 0 0 0 0 0 0 0 
0.02 0.02 0.02 0.02 0.02 0.02 0.02 0.02 0.02 0.02 0.02 0.02 0.02 0.02 0.02 0.02 0.02 0.02 0.02 0.02 0.02 0.02 0.02 0.02 0.02 0.02 0.02 0.02 0.02 0.02 0.02 0.02 0.02 0.02 0.02 0.02 0.02 0.02 0.02 0.02 0.02 0.02 0.02 0.02 0.02 0.02 0.02 0.02 0.02 0.02 0.02 0.02 0.02 0.02 0.02 0.02 0.02 0.02 0.02 0.02 0.02 0.02 0.02 0.02 0.02 0.02 0.02 0.02 0.02 0.02 0.02 0.02 0.02 0.02 0.02 0.02 0.02 0.02 0.02 0.02 0.02 0.02 0.02 0.02 0.02 0.02 0.02 0.02 0.02 0.02 0.02 0.02 0.02 0.02 0.02 0.02 0.02 0.02 0.02 0.02 0.02 0.02 0.02 0.02 0.02 0.02 0.02 0.02 0.02 0.02 0.02 0.02 0.02 0.02 0.02 0.02 0.02 0.02 0.02 0.02 0.02 0.02 0.02 0.02 0.02 0.02 0.02 0.02 0.02 0.02 0.02 0.02 0.02 0.02 0.02 0.02 0.02 0.02 0.02 0.02 0.02 0.02 0.02 0.02 0.02 0.02 0.02 0.0200001 0.0200001 0.0200001 0.0200001 0.0200001 0.0200001 0.0200001 0.0200001 0.0200001 0.0200001 0.0200002 0.0200002 0.0200002 0.0200002 0.0200002 0.0200003 0.0200003 0.0200003 0.0200004 0.0200004 0.0200004 0.0200005 0.0200005 0.0200006 0.0200007 0.0200007 0.0200008 0.0200009 0.020001 0.020001 0.0200011 0.0200013 0.0200014 0.0200015 0.0200016 0.0200018 0.0200019 0.0200021 0.0200023 0.0200025 0.0200027 0.0200029 0.0200032 0.0200035 0.0200038 0.0200041 0.0200044 0.0200047 0.0200051 0.0200055 0.0200059 0.0200064 0.0200069 0.0200074 0.0200079 0.0200085 0.020009 0.0200097 0.0200103 0.020011 0.0200117 0.0200125 0.0200133 0.0200141 0.0200149 0.0200158 0.0200167 0.0200177 0.0200186 0.0200196 0.0200206 0.0200217 0.0200228 0.0200238 0.0200249 0.0200261 0.0200272 0.0200283 0.0200294 0.0200306 0.0200317 0.0200328 0.0200339 0.0200349 0.020036 0.020037 0.0200379 0.0200388 0.0200396 0.0200404 0.0200411 0.0200417 0.0200422 0.0200426 0.0200428 0.020043 0.020043 0.0200429 0.0200426 0.0200421 0.0200414 0.0200405 0.0200395 0.0200382 0.0200368 0.0200351 0.0200332 0.020031 0.0200286 0.0200259 0.020023 0.0200197 0.0200162 0.0200124 0.0200083 0.0200039 0.0199991 0.0199941 0.0199887 0.019983 0.0199769 0.0199706 0.0199638 0.0199568 0.0199494 0.0199417 0.0199336 0.0199252 0.0199165 0.0199074 0.0198981 0.0198884 0.0198784 0.0198682 0.0198576 0.0198468 0.0198357 0.0198244 0.0198128 0.019801 0.019789 0.0197769 0.0197645 0.019752 0.0197394 0.0197267 0.0197139 0.019701 0.0196881 0.0196751 0.0196622 0.0196492 0.0196364 0.0196235 0.0196108 0.0195982 0.0195857 0.0195733 0.0195612 0.0195492 0.0195375 0.019526 0.0195147 0.0195038 0.0194931 0.0194828 0.0194728 0.0194632 0.019454 0.0194452 0.0194369 0.0194291 0.0194217 0.0194149 0.0194087 0.0194031 0.019398 0.0193936 0.0193896 0.0193863 0.0193834 0.0193812 0.0193795 0.0193783 0.0193777 0.0193777 0.0193782 0.0193792 0.0193808 0.0193829 0.0193855 0.0193885 0.0193921 0.0193962 0.0194007 0.0194056 0.019411 0.0194168 0.019423 0.0194296 0.0194365 0.0194438 0.0194515 0.0194594 0.0194677 0.0194762 0.019485 0.0194941 0.0195034 0.019513 0.0195227 0.0195326 0.0195427 0.019553 0.0195634 0.019574 0.0195846 0.0195954 0.0196062 0.0196172 0.0196281 0.0196391 0.0196502 0.0196612 0.0196722 0.0196832 0.0196942 0.0197051 0.019716 0.0197269 0.0197376 0.0197483 0.0197589 0.0197694 0.0197798 0.0197902 0.0198004 0.0198106 0.0198208 0.0198309 0.0198411 0.0198512 0.0198614 0.0198717 0.0198821 0.0198927 0.0199035 0.0199147 0.0199262 0.0199381 0.0199505 0.0199636 0.0199772 0.0199916 0.0200069 0.0200229 0.02004 0.0200579 0.0200769 0.0200969 0.0201178 0.0201397 0.0201625 0.0201859 0.02021 0.0202344 0.020259 0.0202835 0.0203075 0.0203309 0.0203532 0.020374 0.020393 0.0204099 0.0204243 0.0204359 0.0204445 0.0204497 0.0204515 0.0204497 0.0204444 0.0204354 0.0204227 0.0204061 0.0203855 0.0203604 0.0203297 0.0202918 0.0202437 0.0201829 0.0201058 0.0200069 0.0198901 0.0197753 0.0196557 0.019571 0.0195837 0.0193704 0.0196154 0.0192977 0.0186828 0.0180828 0.0174649 0.0168088 0.0160705 0.0152435 0.014322 0.0133084 0.0122304 0.0112686 0.0100228 0.00954777 0.008097 0.00584855 0.00451531 0 0 0 0 0 0 0 0 0 0 0 0 0 0 0 0 0 0 0 0 0 0 0 0 0 0 0 0 0 0 0 0 0 0 0 0 0 0 0 0 0 0 0 0 0 0 0 0 0 0 0 0 0 0 0 0 0 0 0 0 0 0 0 0 0 0 0 0 0 0 0 0 0 0 0 0 0 0 0 0 0 0 0 0 0 0 0 0 0 0 0 0 0 0 0 0 0 0 0 0 0 0 0 0 0 0 0 0 0 0 0 0 0 0 0 0 0 0 0 0 0 0 0 0 0 0 0 0 0 0 0 0 0 0 0 0 0 0 0 0 0 0 0 0 0 0 0 0 0 0 0 0 0 0 0 0 0 0 0 
0.02 0.02 0.02 0.02 0.02 0.02 0.02 0.02 0.02 0.02 0.02 0.02 0.02 0.02 0.02 0.02 0.02 0.02 0.02 0.02 0.02 0.02 0.02 0.02 0.02 0.02 0.02 0.02 0.02 0.02 0.02 0.02 0.02 0.02 0.02 0.02 0.02 0.02 0.02 0.02 0.02 0.02 0.02 0.02 0.02 0.02 0.02 0.02 0.02 0.02 0.02 0.02 0.02 0.02 0.02 0.02 0.02 0.02 0.02 0.02 0.02 0.02 0.02 0.02 0.02 0.02 0.02 0.02 0.02 0.02 0.02 0.02 0.02 0.02 0.02 0.02 0.02 0.02 0.02 0.02 0.02 0.02 0.02 0.02 0.02 0.02 0.02 0.02 0.02 0.02 0.02 0.02 0.02 0.02 0.02 0.02 0.02 0.02 0.02 0.02 0.02 0.02 0.02 0.02 0.02 0.02 0.02 0.02 0.02 0.02 0.02 0.02 0.02 0.02 0.02 0.02 0.02 0.02 0.02 0.02 0.02 0.02 0.02 0.02 0.02 0.02 0.02 0.02 0.02 0.02 0.02 0.02 0.02 0.02 0.02 0.02 0.02 0.02 0.02 0.02 0.02 0.02 0.02 0.02 0.02 0.02 0.02 0.0200001 0.0200001 0.0200001 0.0200001 0.0200001 0.0200001 0.0200001 0.0200001 0.0200001 0.0200001 0.0200002 0.0200002 0.0200002 0.0200002 0.0200002 0.0200003 0.0200003 0.0200003 0.0200004 0.0200004 0.0200004 0.0200005 0.0200005 0.0200006 0.0200006 0.0200007 0.0200008 0.0200009 0.0200009 0.020001 0.0200011 0.0200012 0.0200013 0.0200015 0.0200016 0.0200018 0.0200019 0.0200021 0.0200023 0.0200025 0.0200027 0.0200029 0.0200032 0.0200034 0.0200037 0.020004 0.0200043 0.0200047 0.020005 0.0200054 0.0200059 0.0200063 0.0200068 0.0200073 0.0200078 0.0200084 0.0200089 0.0200096 0.0200102 0.0200109 0.0200116 0.0200123 0.0200131 0.0200139 0.0200148 0.0200156 0.0200165 0.0200175 0.0200184 0.0200194 0.0200204 0.0200215 0.0200225 0.0200236 0.0200247 0.0200258 0.0200269 0.0200281 0.0200292 0.0200303 0.0200314 0.0200325 0.0200336 0.0200347 0.0200357 0.0200367 0.0200376 0.0200385 0.0200393 0.0200401 0.0200408 0.0200414 0.0200419 0.0200423 0.0200426 0.0200428 0.0200428 0.0200427 0.0200424 0.0200419 0.0200413 0.0200404 0.0200394 0.0200382 0.0200368 0.0200352 0.0200333 0.0200312 0.0200288 0.0200262 0.0200233 0.0200202 0.0200167 0.020013 0.020009 0.0200046 0.02 0.019995 0.0199897 0.0199841 0.0199782 0.0199719 0.0199653 0.0199584 0.0199511 0.0199435 0.0199356 0.0199274 0.0199188 0.0199099 0.0199007 0.0198911 0.0198813 0.0198712 0.0198608 0.0198501 0.0198392 0.019828 0.0198166 0.019805 0.0197931 0.0197811 0.0197689 0.0197565 0.019744 0.0197314 0.0197187 0.0197059 0.0196931 0.0196802 0.0196673 0.0196545 0.0196416 0.0196288 0.0196161 0.0196034 0.0195909 0.0195785 0.0195663 0.0195543 0.0195424 0.0195308 0.0195195 0.0195085 0.0194977 0.0194874 0.0194773 0.0194677 0.0194585 0.0194498 0.0194415 0.0194338 0.0194266 0.0194199 0.0194138 0.0194082 0.0194031 0.0193986 0.0193946 0.0193912 0.0193883 0.0193859 0.0193842 0.0193829 0.0193823 0.0193821 0.0193826 0.0193835 0.019385 0.019387 0.0193895 0.0193924 0.0193959 0.0193999 0.0194042 0.0194091 0.0194144 0.01942 0.0194261 0.0194326 0.0194394 0.0194466 0.0194541 0.0194619 0.0194701 0.0194785 0.0194872 0.0194961 0.0195053 0.0195147 0.0195243 0.0195341 0.0195441 0.0195542 0.0195645 0.0195749 0.0195855 0.0195961 0.0196068 0.0196176 0.0196285 0.0196393 0.0196503 0.0196612 0.0196721 0.019683 0.0196939 0.0197047 0.0197155 0.0197262 0.0197369 0.0197475 0.019758 0.0197685 0.0197788 0.0197891 0.0197993 0.0198095 0.0198196 0.0198297 0.0198397 0.0198498 0.01986 0.0198702 0.0198806 0.0198911 0.0199019 0.0199129 0.0199243 0.0199361 0.0199484 0.0199613 0.0199748 0.019989 0.020004 0.0200198 0.0200366 0.0200543 0.0200729 0.0200925 0.0201131 0.0201346 0.0201569 0.0201799 0.0202035 0.0202275 0.0202516 0.0202756 0.0202992 0.0203221 0.0203439 0.0203642 0.0203828 0.0203992 0.0204132 0.0204243 0.0204325 0.0204373 0.0204388 0.0204367 0.0204312 0.020422 0.0204093 0.0203928 0.0203724 0.0203476 0.0203174 0.0202801 0.020233 0.0201738 0.0201015 0.0200142 0.0199169 0.019835 0.0197739 0.0197146 0.0197477 0.0196849 0.0194631 0.019104 0.0186093 0.0180913 0.0174859 0.0168232 0.0160644 0.0152175 0.0142908 0.0132928 0.0122753 0.0113336 0.010358 0.00906887 0.00751252 0.00516602 0.00283111 -0.00235281 -0.00668642 0 0 0 0 0 0 0 0 0 0 0 0 0 0 0 0 0 0 0 0 0 0 0 0 0 0 0 0 0 0 0 0 0 0 0 0 0 0 0 0 0 0 0 0 0 0 0 0 0 0 0 0 0 0 0 0 0 0 0 0 0 0 0 0 0 0 0 0 0 0 0 0 0 0 0 0 0 0 0 0 0 0 0 0 0 0 0 0 0 0 0 0 0 0 0 0 0 0 0 0 0 0 0 0 0 0 0 0 0 0 0 0 0 0 0 0 0 0 0 0 0 0 0 0 0 0 0 0 0 0 0 0 0 0 0 0 0 0 0 0 0 0 0 0 0 0 0 0 0 0 0 0 0 0 0 0 -9.75782e-19 
0.02 0.02 0.02 0.02 0.02 0.02 0.02 0.02 0.02 0.02 0.02 0.02 0.02 0.02 0.02 0.02 0.02 0.02 0.02 0.02 0.02 0.02 0.02 0.02 0.02 0.02 0.02 0.02 0.02 0.02 0.02 0.02 0.02 0.02 0.02 0.02 0.02 0.02 0.02 0.02 0.02 0.02 0.02 0.02 0.02 0.02 0.02 0.02 0.02 0.02 0.02 0.02 0.02 0.02 0.02 0.02 0.02 0.02 0.02 0.02 0.02 0.02 0.02 0.02 0.02 0.02 0.02 0.02 0.02 0.02 0.02 0.02 0.02 0.02 0.02 0.02 0.02 0.02 0.02 0.02 0.02 0.02 0.02 0.02 0.02 0.02 0.02 0.02 0.02 0.02 0.02 0.02 0.02 0.02 0.02 0.02 0.02 0.02 0.02 0.02 0.02 0.02 0.02 0.02 0.02 0.02 0.02 0.02 0.02 0.02 0.02 0.02 0.02 0.02 0.02 0.02 0.02 0.02 0.02 0.02 0.02 0.02 0.02 0.02 0.02 0.02 0.02 0.02 0.02 0.02 0.02 0.02 0.02 0.02 0.02 0.02 0.02 0.02 0.02 0.02 0.02 0.02 0.02 0.02 0.02 0.02 0.02 0.0200001 0.0200001 0.0200001 0.0200001 0.0200001 0.0200001 0.0200001 0.0200001 0.0200001 0.0200001 0.0200002 0.0200002 0.0200002 0.0200002 0.0200002 0.0200003 0.0200003 0.0200003 0.0200004 0.0200004 0.0200004 0.0200005 0.0200005 0.0200006 0.0200006 0.0200007 0.0200008 0.0200008 0.0200009 0.020001 0.0200011 0.0200012 0.0200013 0.0200014 0.0200016 0.0200017 0.0200019 0.020002 0.0200022 0.0200024 0.0200026 0.0200029 0.0200031 0.0200034 0.0200036 0.0200039 0.0200043 0.0200046 0.020005 0.0200054 0.0200058 0.0200062 0.0200067 0.0200072 0.0200077 0.0200082 0.0200088 0.0200094 0.0200101 0.0200107 0.0200114 0.0200122 0.0200129 0.0200137 0.0200146 0.0200154 0.0200163 0.0200172 0.0200182 0.0200192 0.0200202 0.0200212 0.0200222 0.0200233 0.0200244 0.0200255 0.0200266 0.0200277 0.0200288 0.0200299 0.0200311 0.0200321 0.0200332 0.0200343 0.0200353 0.0200363 0.0200372 0.0200381 0.0200389 0.0200397 0.0200404 0.020041 0.0200415 0.0200419 0.0200422 0.0200424 0.0200425 0.0200424 0.0200421 0.0200417 0.0200411 0.0200403 0.0200393 0.0200381 0.0200367 0.0200352 0.0200334 0.0200313 0.020029 0.0200265 0.0200237 0.0200206 0.0200172 0.0200136 0.0200097 0.0200055 0.0200009 0.0199961 0.0199909 0.0199854 0.0199796 0.0199735 0.0199671 0.0199603 0.0199532 0.0199457 0.019938 0.0199299 0.0199215 0.0199128 0.0199037 0.0198944 0.0198848 0.0198748 0.0198646 0.0198541 0.0198434 0.0198324 0.0198212 0.0198097 0.019798 0.0197862 0.0197741 0.0197619 0.0197496 0.0197371 0.0197245 0.0197118 0.0196991 0.0196863 0.0196735 0.0196606 0.0196478 0.019635 0.0196223 0.0196096 0.0195971 0.0195847 0.0195724 0.0195604 0.0195485 0.0195369 0.0195256 0.0195145 0.0195038 0.0194934 0.0194835 0.0194739 0.0194648 0.0194561 0.019448 0.0194403 0.0194331 0.0194264 0.0194202 0.0194146 0.0194094 0.0194048 0.0194008 0.0193972 0.0193943 0.0193918 0.01939 0.0193887 0.0193879 0.0193876 0.019388 0.0193888 0.0193901 0.019392 0.0193944 0.0193972 0.0194006 0.0194044 0.0194086 0.0194133 0.0194185 0.019424 0.0194299 0.0194362 0.0194429 0.0194499 0.0194573 0.019465 0.0194729 0.0194812 0.0194897 0.0194985 0.0195075 0.0195167 0.0195262 0.0195358 0.0195456 0.0195556 0.0195657 0.019576 0.0195864 0.0195968 0.0196074 0.019618 0.0196287 0.0196394 0.0196502 0.019661 0.0196718 0.0196825 0.0196933 0.019704 0.0197147 0.0197253 0.0197358 0.0197463 0.0197567 0.0197671 0.0197774 0.0197876 0.0197977 0.0198078 0.0198178 0.0198279 0.0198379 0.0198479 0.019858 0.0198681 0.0198784 0.0198889 0.0198996 0.0199105 0.0199218 0.0199335 0.0199456 0.0199583 0.0199716 0.0199855 0.0200002 0.0200158 0.0200322 0.0200495 0.0200677 0.0200868 0.0201069 0.0201279 0.0201497 0.0201721 0.0201951 0.0202184 0.0202419 0.0202652 0.0202882 0.0203103 0.0203315 0.0203511 0.020369 0.0203848 0.020398 0.0204085 0.020416 0.0204203 0.0204213 0.0204188 0.0204128 0.0204034 0.0203905 0.020374 0.0203537 0.0203291 0.0202994 0.020263 0.0202174 0.0201611 0.0200956 0.0200244 0.0199521 0.0198955 0.0198658 0.0198301 0.0197339 0.0196339 0.0193934 0.0190434 0.0185999 0.0180953 0.0175011 0.0168313 0.016062 0.015208 0.0142846 0.0133215 0.0123238 0.0113482 0.010249 0.00895014 0.00727959 0.00504367 0.0018897 -0.00289189 -0.00906883 -0.0180319 0 0 0 0 0 0 0 0 0 0 0 0 0 0 0 0 0 0 0 0 0 0 0 0 0 0 0 0 0 0 0 0 0 0 0 0 0 0 0 0 0 0 0 0 0 0 0 0 0 0 0 0 0 0 0 0 0 0 0 0 0 0 0 0 0 0 0 0 0 0 0 0 0 0 0 0 0 0 0 0 0 0 0 0 0 0 0 0 0 0 0 0 0 0 0 0 0 0 0 0 0 0 0 0 0 0 0 0 0 0 0 0 0 0 0 0 0 0 0 0 0 0 0 0 0 0 0 0 0 0 0 0 0 0 0 0 0 0 0 0 0 0 0 0 0 0 0 0 0 0 0 0 0 0 -0.00728214 -6.50521e-19 
0.02 0.02 0.02 0.02 0.02 0.02 0.02 0.02 0.02 0.02 0.02 0.02 0.02 0.02 0.02 0.02 0.02 0.02 0.02 0.02 0.02 0.02 0.02 0.02 0.02 0.02 0.02 0.02 0.02 0.02 0.02 0.02 0.02 0.02 0.02 0.02 0.02 0.02 0.02 0.02 0.02 0.02 0.02 0.02 0.02 0.02 0.02 0.02 0.02 0.02 0.02 0.02 0.02 0.02 0.02 0.02 0.02 0.02 0.02 0.02 0.02 0.02 0.02 0.02 0.02 0.02 0.02 0.02 0.02 0.02 0.02 0.02 0.02 0.02 0.02 0.02 0.02 0.02 0.02 0.02 0.02 0.02 0.02 0.02 0.02 0.02 0.02 0.02 0.02 0.02 0.02 0.02 0.02 0.02 0.02 0.02 0.02 0.02 0.02 0.02 0.02 0.02 0.02 0.02 0.02 0.02 0.02 0.02 0.02 0.02 0.02 0.02 0.02 0.02 0.02 0.02 0.02 0.02 0.02 0.02 0.02 0.02 0.02 0.02 0.02 0.02 0.02 0.02 0.02 0.02 0.02 0.02 0.02 0.02 0.02 0.02 0.02 0.02 0.02 0.02 0.02 0.02 0.02 0.02 0.02 0.02 0.02 0.0200001 0.0200001 0.0200001 0.0200001 0.0200001 0.0200001 0.0200001 0.0200001 0.0200001 0.0200001 0.0200002 0.0200002 0.0200002 0.0200002 0.0200002 0.0200003 0.0200003 0.0200003 0.0200003 0.0200004 0.0200004 0.0200005 0.0200005 0.0200006 0.0200006 0.0200007 0.0200007 0.0200008 0.0200009 0.020001 0.0200011 0.0200012 0.0200013 0.0200014 0.0200015 0.0200017 0.0200018 0.020002 0.0200022 0.0200024 0.0200026 0.0200028 0.020003 0.0200033 0.0200036 0.0200038 0.0200042 0.0200045 0.0200049 0.0200052 0.0200056 0.0200061 0.0200065 0.020007 0.0200075 0.0200081 0.0200086 0.0200092 0.0200099 0.0200105 0.0200112 0.0200119 0.0200127 0.0200135 0.0200143 0.0200151 0.020016 0.0200169 0.0200179 0.0200188 0.0200198 0.0200208 0.0200219 0.0200229 0.020024 0.0200251 0.0200262 0.0200273 0.0200284 0.0200295 0.0200306 0.0200316 0.0200327 0.0200338 0.0200348 0.0200357 0.0200367 0.0200376 0.0200384 0.0200392 0.0200398 0.0200405 0.020041 0.0200414 0.0200417 0.0200419 0.020042 0.0200419 0.0200417 0.0200413 0.0200407 0.02004 0.0200391 0.0200379 0.0200366 0.0200351 0.0200333 0.0200314 0.0200292 0.0200267 0.020024 0.020021 0.0200178 0.0200143 0.0200105 0.0200064 0.020002 0.0199973 0.0199922 0.0199869 0.0199813 0.0199753 0.019969 0.0199624 0.0199555 0.0199483 0.0199407 0.0199328 0.0199246 0.0199161 0.0199073 0.0198982 0.0198887 0.019879 0.019869 0.0198588 0.0198482 0.0198374 0.0198264 0.0198152 0.0198037 0.019792 0.0197802 0.0197681 0.0197559 0.0197436 0.0197312 0.0197186 0.019706 0.0196933 0.0196805 0.0196678 0.019655 0.0196422 0.0196295 0.0196169 0.0196044 0.019592 0.0195798 0.0195678 0.019556 0.0195444 0.0195331 0.0195221 0.0195115 0.0195012 0.0194913 0.0194818 0.0194727 0.0194641 0.0194559 0.0194482 0.019441 0.0194342 0.019428 0.0194222 0.019417 0.0194123 0.0194081 0.0194045 0.0194014 0.0193989 0.0193969 0.0193955 0.0193946 0.0193942 0.0193944 0.0193951 0.0193963 0.019398 0.0194002 0.0194029 0.0194061 0.0194097 0.0194138 0.0194183 0.0194233 0.0194286 0.0194344 0.0194405 0.019447 0.0194538 0.019461 0.0194685 0.0194762 0.0194843 0.0194926 0.0195012 0.01951 0.019519 0.0195283 0.0195377 0.0195473 0.0195571 0.019567 0.0195771 0.0195872 0.0195975 0.0196079 0.0196183 0.0196288 0.0196394 0.01965 0.0196606 0.0196712 0.0196818 0.0196924 0.0197029 0.0197135 0.0197239 0.0197344 0.0197447 0.019755 0.0197653 0.0197754 0.0197856 0.0197956 0.0198056 0.0198156 0.0198255 0.0198355 0.0198454 0.0198554 0.0198655 0.0198757 0.0198861 0.0198966 0.0199075 0.0199186 0.0199301 0.019942 0.0199545 0.0199675 0.0199812 0.0199956 0.0200107 0.0200267 0.0200435 0.0200612 0.0200798 0.0200992 0.0201195 0.0201406 0.0201623 0.0201845 0.020207 0.0202296 0.0202521 0.0202742 0.0202955 0.0203157 0.0203344 0.0203514 0.0203662 0.0203786 0.0203883 0.020395 0.0203985 0.0203987 0.0203955 0.020389 0.0203791 0.0203659 0.0203492 0.0203288 0.0203043 0.0202751 0.0202397 0.0201965 0.0201447 0.0200876 0.0200323 0.0199837 0.0199452 0.0199205 0.0198815 0.0198 0.0196232 0.0193573 0.0190149 0.0185938 0.0180956 0.017507 0.016833 0.0160637 0.0152145 0.0143042 0.0133555 0.0123635 0.011289 0.0101456 0.00879108 0.00709042 0.00485516 0.00169328 -0.00273597 -0.00998025 -0.0205264 -0.0304652 0 0 0 0 0 0 0 0 0 0 0 0 0 0 0 0 0 0 0 0 0 0 0 0 0 0 0 0 0 0 0 0 0 0 0 0 0 0 0 0 0 0 0 0 0 0 0 0 0 0 0 0 0 0 0 0 0 0 0 0 0 0 0 0 0 0 0 0 0 0 0 0 0 0 0 0 0 0 0 0 0 0 0 0 0 0 0 0 0 0 0 0 0 0 0 0 0 0 0 0 0 0 0 0 0 0 0 0 0 0 0 0 0 0 0 0 0 0 0 0 0 0 0 0 0 0 0 0 0 0 0 0 0 0 0 0 0 0 0 0 0 0 0 0 0 0 0 0 0 0 0 0 0 -0.0113688 -2.1684e-19 