# vtk DataFile Version 2.0
iteration 1593
ASCII

DATASET STRUCTURED_POINTS
DIMENSIONS 621 64 1
ORIGIN 0 0 0
SPACING 0.00161031 0.00161031 0.00161031

POINT_DATA 39744
SCALARS P float 1
LOOKUP_TABLE default
0 0 0 0 0 0 0 0 0 0 0 0 0 0 0 0 0 0 0 0 0 0 0 0 0 0 0 0 0 0 0 0 0 0 0 0 0 0 0 0 0 0 0 0 0 0 0 0 0 0 0 0 0 0 0 0 0 0 0 0 0 0 0 0 0 0 0 0 0 0 0 0 0 0 0 0 0 0 0 0 0 0 0 0 0 0 0 0 0 0 0 0 0 0 0 0 0 0 0 0 0 0 0 0 0 0 0 0 0 0 0 0 0 0 0 0 0 0 0 0 0 0 0 0 0 0 0 0 0 0 0 0 0 0 0 0 0 0 0 0 0 0 0 0 0 0 0 0 0 0 0 0 0 0 0 0 0 0 0 0 0 0 0 0 0 0 0 0 0 0 0 0 0 0 0 0 0 0 0 0 0 0 0 0 0 0 0 0 0 0 0 0 0 0 0 0 0 0 0 0 0 0 0 0 0 0 0 0 0 0 0 0 0 0 0 0 0 0 0 0 0 0 0 0 0 0 0 0 0 0 0 0 0 0 0 0 0 0 0 0 0 0 0 0 0 0 0 0 0 0 0 0 0 0 0 0 0 0 0 0 0 0 0 0 0 0 0 0 0 0 0 0 0 0 0 0 0 0 0 0 0 0 0 0 0 0 0 0 0 0 0 0 0 0 0 0 0 0 0 0 0 0 0 0 0 0 0 0 0 0 0 0 0 0 0 0 0 0 0 0 0 0 0 0 0 0 0 0 0 0 0 0 0 0 0 0 0 0 0 0 0 0 0 0 0 0 0 0 0 0 0 0 0 0 0 0 0 0 0 0 0 0 0 0 0 0 0 0 0 0 0 0 0 0 0 0 0 0 0 0 0 0 0 0 0 0 0 0 0 0 0 0 0 0 0 0 0 0 0 0 0 0 0 0 0 0 0 0 0 0 0 0 0 0 0 0 0 0 0 0 0 0 0 0 0 0 0 0 0 0 0 0 0 0 0 0 0 0 0 0 0 0 0 0 0 0 0 0 0 0 0 0 0 0 0 0 0 0 0 0 0 0 0 0 0 0 0 0 0 0 0 0 0 0 0 0 0 0 0 0 0 0 0 0 0 0 0 0 0 0 0 0 0 0 0 0 0 0 0 0 0 0 0 0 0 0 0 0 0 0 0 0 0 0 0 0 0 0 0 0 0 0 0 0 0 0 0 0 0 0 0 0 0 0 0 0 0 0 0 0 0 0 0 0 0 0 0 0 0 0 0 0 0 0 0 0 0 0 0 0 0 0 0 0 0 0 0 0 0 0 0 0 0 0 0 0 0 0 0 0 0 0 0 0 0 0 0 0 0 0 0 0 0 0 0 0 0 0 0 0 0 0 0 0 0 0 0 0 0 0 0 0 0 0 0 0 0 0 0 0 0 
0.02 0.02 0.02 0.02 0.02 0.02 0.02 0.02 0.02 0.02 0.02 0.02 0.02 0.02 0.02 0.02 0.02 0.02 0.02 0.02 0.02 0.02 0.02 0.02 0.02 0.02 0.02 0.02 0.02 0.02 0.02 0.02 0.02 0.02 0.02 0.02 0.02 0.02 0.02 0.02 0.02 0.02 0.02 0.02 0.02 0.02 0.02 0.02 0.02 0.02 0.02 0.02 0.02 0.02 0.02 0.02 0.02 0.02 0.02 0.02 0.02 0.02 0.02 0.02 0.02 0.02 0.02 0.02 0.02 0.02 0.02 0.02 0.02 0.02 0.02 0.02 0.02 0.02 0.02 0.02 0.02 0.02 0.02 0.02 0.02 0.02 0.02 0.02 0.02 0.02 0.02 0.02 0.02 0.02 0.02 0.02 0.02 0.02 0.02 0.02 0.02 0.02 0.02 0.02 0.02 0.0199999 0.0199999 0.0199999 0.0199999 0.0199999 0.0199999 0.0199999 0.0199999 0.0199999 0.0199999 0.0199999 0.0199998 0.0199998 0.0199998 0.0199998 0.0199998 0.0199997 0.0199997 0.0199997 0.0199997 0.0199996 0.0199996 0.0199996 0.0199995 0.0199995 0.0199994 0.0199994 0.0199993 0.0199993 0.0199992 0.0199992 0.0199991 0.019999 0.0199989 0.0199988 0.0199988 0.0199987 0.0199986 0.0199985 0.0199983 0.0199982 0.0199981 0.019998 0.0199978 0.0199977 0.0199975 0.0199974 0.0199972 0.0199971 0.0199969 0.0199967 0.0199966 0.0199964 0.0199962 0.019996 0.0199959 0.0199957 0.0199956 0.0199954 0.0199953 0.0199952 0.0199951 0.019995 0.0199949 0.0199949 0.0199949 0.0199949 0.019995 0.0199952 0.0199954 0.0199956 0.019996 0.0199964 0.0199969 0.0199975 0.0199982 0.019999 0.0199999 0.020001 0.0200022 0.0200036 0.0200051 0.0200068 0.0200088 0.0200109 0.0200132 0.0200158 0.0200186 0.0200216 0.0200249 0.0200285 0.0200324 0.0200366 0.0200411 0.0200459 0.020051 0.0200565 0.0200624 0.0200686 0.0200752 0.0200821 0.0200895 0.0200972 0.0201054 0.0201139 0.0201228 0.0201322 0.0201419 0.0201521 0.0201626 0.0201736 0.0201849 0.0201966 0.0202087 0.020221 0.0202333 0.0202461 0.0202594 0.0202731 0.0202871 0.0203015 0.0203162 0.0203312 0.0203464 0.0203619 0.0203776 0.0203936 0.0204097 0.020426 0.0204425 0.0204591 0.0204758 0.0204926 0.0205095 0.0205264 0.0205432 0.0205601 0.0205769 0.0205937 0.0206103 0.0206268 0.020643 0.0206591 0.0206749 0.0206905 0.0207057 0.0207205 0.0207349 0.0207489 0.0207624 0.0207754 0.0207878 0.0207996 0.0208108 0.0208213 0.0208311 0.0208401 0.0208482 0.0208556 0.0208621 0.0208677 0.0208723 0.0208759 0.0208786 0.0208803 0.0208808 0.0208804 0.0208788 0.0208761 0.0208724 0.0208675 0.0208615 0.0208544 0.0208462 0.0208372 0.0208277 0.0208168 0.0208059 0.0207943 0.020782 0.0207691 0.0207556 0.0207416 0.0207271 0.0207123 0.0206971 0.0206817 0.0206661 0.0206505 0.0206348 0.0206192 0.0206037 0.0205884 0.0205734 0.0205587 0.0205444 0.0205306 0.0205172 0.0205044 0.0204922 0.0204807 0.0204698 0.0204597 0.0204502 0.0204415 0.0204335 0.0204263 0.0204199 0.0204141 0.0204092 0.0204049 0.0204013 0.0203983 0.020396 0.0203943 0.0203931 0.0203924 0.0203921 0.0203922 0.0203926 0.0203933 0.0203941 0.0203952 0.0203962 0.0203973 0.0203982 0.020399 0.0203996 0.0203998 0.0203996 0.0203989 0.0203975 0.0203956 0.0203928 0.0203891 0.0203845 0.0203789 0.0203721 0.020364 0.0203544 0.0203415 0.0203213 0.0203007 0.020279 0.0202554 0.0202295 0.0202012 0.0201704 0.0201373 0.0201016 0.0200633 0.020022 0.0199775 0.0199296 0.0198778 0.0198219 0.0197615 0.0196962 0.0196257 0.0195495 0.0194669 0.0193774 0.0192801 0.0191739 0.0190575 0.0189294 0.0187876 0.0186294 0.0184514 0.0182497 0.0180204 0.0177577 0.0174603 0.0171312 0.0167458 0.0164102 0.0162876 0.0179726 0.0162037 0 0 0 0 0 0 0 0 0 0 0 0 0 0 0 0 0 0 0 0 0 0 0 0 0 0 0 0 0 0 0 0 0 0 0 0 0 0 0 0 0 0 0 0 0 0 0 0 0 0 0 0 0 0 0 0 0 0 0 0 0 0 0 0 0 0 0 0 0 0 0 0 0 0 0 0 0 0 0 0 0 0 0 0 0 0 0 0 0 0 0 0 0 0 0 0 0 0 0 0 0 0 0 0 0 0 0 0 0 0 0 0 0 0 0 0 0 0 0 0 0 0 0 0 0 0 0 0 0 0 0 0 0 0 0 0 0 0 0 0 0 0 0 0 0 0 0 0 0 0 0 0 0 0 0 0 0 0 0 0 0 0 0 0 0 0 0 0 0 0 0 0 0 0 0 0 0 0 0 0 0 0 0 0 0 0 0 0 0 0 0 0 0 0 0 0 0 0 0 0 0 0 0 0 0 0 0 0 0 0 0 0 0 0 0 0 0 0 0 0 0 0 0 0 0 0 0 0 0 0 0 0 0 0 0 0 0 
0.02 0.02 0.02 0.02 0.02 0.02 0.02 0.02 0.02 0.02 0.02 0.02 0.02 0.02 0.02 0.02 0.02 0.02 0.02 0.02 0.02 0.02 0.02 0.02 0.02 0.02 0.02 0.02 0.02 0.02 0.02 0.02 0.02 0.02 0.02 0.02 0.02 0.02 0.02 0.02 0.02 0.02 0.02 0.02 0.02 0.02 0.02 0.02 0.02 0.02 0.02 0.02 0.02 0.02 0.02 0.02 0.02 0.02 0.02 0.02 0.02 0.02 0.02 0.02 0.02 0.02 0.02 0.02 0.02 0.02 0.02 0.02 0.02 0.02 0.02 0.02 0.02 0.02 0.02 0.02 0.02 0.02 0.02 0.02 0.02 0.02 0.02 0.02 0.02 0.02 0.02 0.02 0.02 0.02 0.02 0.02 0.02 0.02 0.02 0.02 0.02 0.02 0.02 0.02 0.02 0.02 0.0199999 0.0199999 0.0199999 0.0199999 0.0199999 0.0199999 0.0199999 0.0199999 0.0199999 0.0199999 0.0199998 0.0199998 0.0199998 0.0199998 0.0199998 0.0199998 0.0199997 0.0199997 0.0199997 0.0199996 0.0199996 0.0199996 0.0199995 0.0199995 0.0199994 0.0199994 0.0199993 0.0199993 0.0199992 0.0199992 0.0199991 0.019999 0.0199989 0.0199989 0.0199988 0.0199987 0.0199986 0.0199985 0.0199984 0.0199982 0.0199981 0.019998 0.0199979 0.0199977 0.0199976 0.0199974 0.0199973 0.0199971 0.0199969 0.0199968 0.0199966 0.0199964 0.0199963 0.0199961 0.0199959 0.0199958 0.0199956 0.0199955 0.0199953 0.0199952 0.0199951 0.019995 0.019995 0.019995 0.019995 0.019995 0.0199951 0.0199952 0.0199954 0.0199957 0.019996 0.0199964 0.0199969 0.0199975 0.0199982 0.019999 0.02 0.020001 0.0200022 0.0200036 0.0200051 0.0200068 0.0200087 0.0200108 0.0200131 0.0200157 0.0200185 0.0200215 0.0200248 0.0200283 0.0200322 0.0200364 0.0200408 0.0200456 0.0200507 0.0200562 0.020062 0.0200682 0.0200747 0.0200816 0.0200889 0.0200966 0.0201047 0.0201131 0.020122 0.0201313 0.020141 0.0201511 0.0201615 0.0201724 0.0201837 0.0201953 0.0202073 0.0202196 0.020232 0.0202448 0.020258 0.0202717 0.0202856 0.0202999 0.0203145 0.0203294 0.0203446 0.02036 0.0203757 0.0203915 0.0204076 0.0204238 0.0204402 0.0204568 0.0204734 0.0204901 0.0205069 0.0205237 0.0205406 0.0205574 0.0205741 0.0205908 0.0206073 0.0206237 0.02064 0.020656 0.0206717 0.0206872 0.0207023 0.0207171 0.0207315 0.0207454 0.0207589 0.0207718 0.0207842 0.0207959 0.020807 0.0208175 0.0208272 0.0208361 0.0208442 0.0208515 0.0208579 0.0208634 0.020868 0.0208715 0.0208741 0.0208756 0.0208761 0.0208756 0.0208739 0.0208712 0.0208674 0.0208625 0.0208567 0.02085 0.0208422 0.0208335 0.0208244 0.0208145 0.0208038 0.0207924 0.0207803 0.0207676 0.0207543 0.0207404 0.0207261 0.0207115 0.0206965 0.0206813 0.0206659 0.0206504 0.0206349 0.0206195 0.0206041 0.020589 0.0205741 0.0205596 0.0205454 0.0205317 0.0205185 0.0205058 0.0204937 0.0204823 0.0204715 0.0204614 0.020452 0.0204433 0.0204354 0.0204282 0.0204218 0.0204161 0.0204111 0.0204068 0.0204031 0.0204001 0.0203978 0.020396 0.0203947 0.0203939 0.0203935 0.0203935 0.0203937 0.0203943 0.020395 0.0203959 0.0203968 0.0203977 0.0203984 0.0203991 0.0203994 0.0203994 0.020399 0.0203981 0.0203966 0.0203944 0.0203914 0.0203875 0.0203827 0.0203768 0.0203698 0.0203614 0.0203511 0.0203378 0.0203201 0.0203001 0.0202784 0.0202547 0.0202286 0.0202003 0.0201696 0.0201364 0.0201007 0.0200624 0.0200211 0.0199766 0.0199286 0.0198767 0.0198208 0.0197603 0.019695 0.0196245 0.0195482 0.0194655 0.0193758 0.0192783 0.0191718 0.019055 0.0189264 0.0187841 0.0186253 0.0184466 0.0182443 0.0180153 0.0177546 0.0174604 0.01715 0.016832 0.0164651 0.0163535 0.0165288 0.0160763 0.0150345 0.0141193 0.0131267 0.0120729 0.0108876 0.00953251 0.00798348 0.00633525 0.00487694 0.00428696 0.00215356 0 0 0 0 0 0 0 0 0 0 0 0 0 0 0 0 0 0 0 0 0 0 0 0 0 0 0 0 0 0 0 0 0 0 0 0 0 0 0 0 0 0 0 0 0 0 0 0 0 0 0 0 0 0 0 0 0 0 0 0 0 0 0 0 0 0 0 0 0 0 0 0 0 0 0 0 0 0 0 0 0 0 0 0 0 0 0 0 0 0 0 0 0 0 0 0 0 0 0 0 0 0 0 0 0 0 0 0 0 0 0 0 0 0 0 0 0 0 0 0 0 0 0 0 0 0 0 0 0 0 0 0 0 0 0 0 0 0 0 0 0 0 0 0 0 0 0 0 0 0 0 0 0 0 0 0 0 0 0 0 0 0 0 0 0 0 0 0 0 0 0 0 0 0 0 0 0 0 0 0 0 0 0 0 0 0 0 0 0 0 0 0 0 0 0 0 0 0 0 0 0 0 0 0 0 0 0 0 0 0 0 0 0 0 0 0 0 0 0 0 0 0 0 0 0 0 
0.02 0.02 0.02 0.02 0.02 0.02 0.02 0.02 0.02 0.02 0.02 0.02 0.02 0.02 0.02 0.02 0.02 0.02 0.02 0.02 0.02 0.02 0.02 0.02 0.02 0.02 0.02 0.02 0.02 0.02 0.02 0.02 0.02 0.02 0.02 0.02 0.02 0.02 0.02 0.02 0.02 0.02 0.02 0.02 0.02 0.02 0.02 0.02 0.02 0.02 0.02 0.02 0.02 0.02 0.02 0.02 0.02 0.02 0.02 0.02 0.02 0.02 0.02 0.02 0.02 0.02 0.02 0.02 0.02 0.02 0.02 0.02 0.02 0.02 0.02 0.02 0.02 0.02 0.02 0.02 0.02 0.02 0.02 0.02 0.02 0.02 0.02 0.02 0.02 0.02 0.02 0.02 0.02 0.02 0.02 0.02 0.02 0.02 0.02 0.02 0.02 0.02 0.02 0.02 0.02 0.02 0.0199999 0.0199999 0.0199999 0.0199999 0.0199999 0.0199999 0.0199999 0.0199999 0.0199999 0.0199999 0.0199998 0.0199998 0.0199998 0.0199998 0.0199998 0.0199998 0.0199997 0.0199997 0.0199997 0.0199996 0.0199996 0.0199996 0.0199995 0.0199995 0.0199995 0.0199994 0.0199994 0.0199993 0.0199992 0.0199992 0.0199991 0.019999 0.019999 0.0199989 0.0199988 0.0199987 0.0199986 0.0199985 0.0199984 0.0199983 0.0199981 0.019998 0.0199979 0.0199977 0.0199976 0.0199974 0.0199973 0.0199971 0.019997 0.0199968 0.0199966 0.0199965 0.0199963 0.0199961 0.019996 0.0199958 0.0199957 0.0199955 0.0199954 0.0199953 0.0199952 0.0199951 0.0199951 0.019995 0.019995 0.0199951 0.0199952 0.0199953 0.0199955 0.0199958 0.0199961 0.0199965 0.019997 0.0199976 0.0199983 0.0199991 0.02 0.0200011 0.0200023 0.0200037 0.0200052 0.0200069 0.0200088 0.0200109 0.0200132 0.0200157 0.0200184 0.0200215 0.0200247 0.0200283 0.0200321 0.0200362 0.0200407 0.0200454 0.0200505 0.0200559 0.0200617 0.0200678 0.0200743 0.0200812 0.0200884 0.0200961 0.0201041 0.0201125 0.0201213 0.0201305 0.0201401 0.0201501 0.0201605 0.0201713 0.0201825 0.0201941 0.020206 0.0202182 0.0202307 0.0202434 0.0202566 0.0202701 0.0202839 0.0202981 0.0203126 0.0203274 0.0203424 0.0203577 0.0203732 0.020389 0.0204049 0.0204211 0.0204373 0.0204537 0.0204703 0.0204868 0.0205035 0.0205202 0.0205369 0.0205535 0.0205701 0.0205866 0.020603 0.0206193 0.0206354 0.0206512 0.0206668 0.0206821 0.0206971 0.0207117 0.0207259 0.0207397 0.020753 0.0207657 0.0207779 0.0207895 0.0208004 0.0208106 0.0208201 0.0208288 0.0208368 0.0208438 0.02085 0.0208553 0.0208596 0.0208629 0.0208653 0.0208666 0.0208669 0.0208662 0.0208645 0.0208618 0.0208581 0.0208534 0.0208477 0.0208413 0.020834 0.020826 0.0208171 0.0208074 0.0207969 0.0207857 0.0207738 0.0207613 0.0207482 0.0207346 0.0207206 0.0207062 0.0206916 0.0206767 0.0206616 0.0206464 0.0206313 0.0206162 0.0206012 0.0205864 0.0205719 0.0205577 0.0205439 0.0205305 0.0205176 0.0205053 0.0204935 0.0204824 0.0204719 0.0204621 0.020453 0.0204446 0.0204369 0.0204299 0.0204237 0.0204182 0.0204134 0.0204092 0.0204057 0.0204029 0.0204006 0.0203988 0.0203976 0.0203968 0.0203965 0.0203964 0.0203967 0.0203972 0.0203979 0.0203987 0.0203995 0.0204002 0.0204009 0.0204014 0.0204016 0.0204014 0.0204009 0.0203998 0.0203981 0.0203957 0.0203925 0.0203885 0.0203835 0.0203774 0.0203701 0.0203614 0.0203506 0.0203369 0.0203198 0.0202999 0.020278 0.020254 0.0202279 0.0201995 0.0201688 0.0201357 0.0201001 0.0200618 0.0200205 0.019976 0.0199281 0.0198762 0.0198202 0.0197597 0.0196943 0.0196236 0.0195471 0.0194641 0.0193741 0.019276 0.0191688 0.0190513 0.0189218 0.0187783 0.0186184 0.0184388 0.0182359 0.0180083 0.0177542 0.0174747 0.0171981 0.0169168 0.0166468 0.0164383 0.0162366 0.0157872 0.0149401 0.0140844 0.0130914 0.0120274 0.0108198 0.00947552 0.00799847 0.00644479 0.00492657 0.00353498 0.00173841 -0.000416157 -0.0026699 -0.00495158 -0.00704968 0 0 0 0 0 0 0 0 0 0 0 0 0 0 0 0 0 0 0 0 0 0 0 0 0 0 0 0 0 0 0 0 0 0 0 0 0 0 0 0 0 0 0 0 0 0 0 0 0 0 0 0 0 0 0 0 0 0 0 0 0 0 0 0 0 0 0 0 0 0 0 0 0 0 0 0 0 0 0 0 0 0 0 0 0 0 0 0 0 0 0 0 0 0 0 0 0 0 0 0 0 0 0 0 0 0 0 0 0 0 0 0 0 0 0 0 0 0 0 0 0 0 0 0 0 0 0 0 0 0 0 0 0 0 0 0 0 0 0 0 0 0 0 0 0 0 0 0 0 0 0 0 0 0 0 0 0 0 0 0 0 0 0 0 0 0 0 0 0 0 0 0 0 0 0 0 0 0 0 0 0 0 0 0 0 0 0 0 0 0 0 0 0 0 0 0 0 0 0 0 0 0 0 0 0 0 0 0 0 0 0 0 0 0 0 0 0 0 0 0 0 2.1684e-19 
0.02 0.02 0.02 0.02 0.02 0.02 0.02 0.02 0.02 0.02 0.02 0.02 0.02 0.02 0.02 0.02 0.02 0.02 0.02 0.02 0.02 0.02 0.02 0.02 0.02 0.02 0.02 0.02 0.02 0.02 0.02 0.02 0.02 0.02 0.02 0.02 0.02 0.02 0.02 0.02 0.02 0.02 0.02 0.02 0.02 0.02 0.02 0.02 0.02 0.02 0.02 0.02 0.02 0.02 0.02 0.02 0.02 0.02 0.02 0.02 0.02 0.02 0.02 0.02 0.02 0.02 0.02 0.02 0.02 0.02 0.02 0.02 0.02 0.02 0.02 0.02 0.02 0.02 0.02 0.02 0.02 0.02 0.02 0.02 0.02 0.02 0.02 0.02 0.02 0.02 0.02 0.02 0.02 0.02 0.02 0.02 0.02 0.02 0.02 0.02 0.02 0.02 0.02 0.02 0.02 0.02 0.0199999 0.0199999 0.0199999 0.0199999 0.0199999 0.0199999 0.0199999 0.0199999 0.0199999 0.0199999 0.0199998 0.0199998 0.0199998 0.0199998 0.0199998 0.0199998 0.0199997 0.0199997 0.0199997 0.0199997 0.0199996 0.0199996 0.0199995 0.0199995 0.0199995 0.0199994 0.0199994 0.0199993 0.0199992 0.0199992 0.0199991 0.019999 0.019999 0.0199989 0.0199988 0.0199987 0.0199986 0.0199985 0.0199984 0.0199983 0.0199982 0.019998 0.0199979 0.0199978 0.0199976 0.0199975 0.0199973 0.0199972 0.019997 0.0199969 0.0199967 0.0199965 0.0199964 0.0199962 0.0199961 0.0199959 0.0199958 0.0199956 0.0199955 0.0199954 0.0199953 0.0199952 0.0199952 0.0199951 0.0199952 0.0199952 0.0199953 0.0199955 0.0199957 0.0199959 0.0199963 0.0199967 0.0199972 0.0199978 0.0199984 0.0199993 0.0200002 0.0200012 0.0200024 0.0200038 0.0200053 0.020007 0.0200089 0.0200109 0.0200132 0.0200157 0.0200185 0.0200215 0.0200247 0.0200282 0.020032 0.0200361 0.0200405 0.0200453 0.0200503 0.0200557 0.0200614 0.0200675 0.0200739 0.0200807 0.0200879 0.0200955 0.0201034 0.0201117 0.0201205 0.0201296 0.0201391 0.020149 0.0201593 0.02017 0.0201811 0.0201925 0.0202043 0.0202164 0.0202288 0.0202415 0.0202545 0.0202679 0.0202816 0.0202956 0.0203099 0.0203245 0.0203394 0.0203545 0.0203699 0.0203855 0.0204012 0.0204172 0.0204333 0.0204495 0.0204658 0.0204822 0.0204986 0.0205151 0.0205315 0.020548 0.0205644 0.0205807 0.0205968 0.0206128 0.0206287 0.0206443 0.0206596 0.0206747 0.0206894 0.0207038 0.0207177 0.0207312 0.0207442 0.0207567 0.0207686 0.0207799 0.0207905 0.0208004 0.0208096 0.0208181 0.0208257 0.0208325 0.0208383 0.0208433 0.0208474 0.0208505 0.0208527 0.0208539 0.0208541 0.0208534 0.0208518 0.0208491 0.0208456 0.0208411 0.0208359 0.0208297 0.0208227 0.0208149 0.0208061 0.0207967 0.0207864 0.0207755 0.0207639 0.0207517 0.020739 0.0207258 0.0207122 0.0206982 0.020684 0.0206695 0.0206549 0.0206402 0.0206256 0.0206109 0.0205965 0.0205822 0.0205682 0.0205545 0.0205412 0.0205283 0.0205159 0.0205041 0.0204928 0.0204821 0.0204721 0.0204627 0.020454 0.020446 0.0204387 0.020432 0.0204261 0.0204209 0.0204164 0.0204125 0.0204092 0.0204065 0.0204044 0.0204028 0.0204016 0.0204009 0.0204006 0.0204006 0.0204009 0.0204013 0.020402 0.0204026 0.0204033 0.020404 0.0204045 0.0204048 0.0204048 0.0204045 0.0204037 0.0204024 0.0204005 0.0203979 0.0203945 0.0203902 0.020385 0.0203786 0.020371 0.0203618 0.0203505 0.0203364 0.0203193 0.0202995 0.0202774 0.0202533 0.020227 0.0201986 0.020168 0.0201349 0.0200994 0.0200612 0.02002 0.0199756 0.0199276 0.0198758 0.0198198 0.0197592 0.0196937 0.0196227 0.0195459 0.0194625 0.0193718 0.0192729 0.0191648 0.0190461 0.0189152 0.0187702 0.0186088 0.0184282 0.0182257 0.0180016 0.0177591 0.0175027 0.0172492 0.0170222 0.0167803 0.0164238 0.0161414 0.0156035 0.0148613 0.0140379 0.0130674 0.0120047 0.0108004 0.00948333 0.00806696 0.00657588 0.00505026 0.00345309 0.00163547 -0.000434904 -0.00260483 -0.00484637 -0.0074519 -0.0101562 -0.0137535 0 0 0 0 0 0 0 0 0 0 0 0 0 0 0 0 0 0 0 0 0 0 0 0 0 0 0 0 0 0 0 0 0 0 0 0 0 0 0 0 0 0 0 0 0 0 0 0 0 0 0 0 0 0 0 0 0 0 0 0 0 0 0 0 0 0 0 0 0 0 0 0 0 0 0 0 0 0 0 0 0 0 0 0 0 0 0 0 0 0 0 0 0 0 0 0 0 0 0 0 0 0 0 0 0 0 0 0 0 0 0 0 0 0 0 0 0 0 0 0 0 0 0 0 0 0 0 0 0 0 0 0 0 0 0 0 0 0 0 0 0 0 0 0 0 0 0 0 0 0 0 0 0 0 0 0 0 0 0 0 0 0 0 0 0 0 0 0 0 0 0 0 0 0 0 0 0 0 0 0 0 0 0 0 0 0 0 0 0 0 0 0 0 0 0 0 0 0 0 0 0 0 0 0 0 0 0 0 0 0 0 0 0 0 0 0 0 0 0 9.21572e-19 
0.02 0.02 0.02 0.02 0.02 0.02 0.02 0.02 0.02 0.02 0.02 0.02 0.02 0.02 0.02 0.02 0.02 0.02 0.02 0.02 0.02 0.02 0.02 0.02 0.02 0.02 0.02 0.02 0.02 0.02 0.02 0.02 0.02 0.02 0.02 0.02 0.02 0.02 0.02 0.02 0.02 0.02 0.02 0.02 0.02 0.02 0.02 0.02 0.02 0.02 0.02 0.02 0.02 0.02 0.02 0.02 0.02 0.02 0.02 0.02 0.02 0.02 0.02 0.02 0.02 0.02 0.02 0.02 0.02 0.02 0.02 0.02 0.02 0.02 0.02 0.02 0.02 0.02 0.02 0.02 0.02 0.02 0.02 0.02 0.02 0.02 0.02 0.02 0.02 0.02 0.02 0.02 0.02 0.02 0.02 0.02 0.02 0.02 0.02 0.02 0.02 0.02 0.02 0.02 0.02 0.02 0.0199999 0.0199999 0.0199999 0.0199999 0.0199999 0.0199999 0.0199999 0.0199999 0.0199999 0.0199999 0.0199999 0.0199998 0.0199998 0.0199998 0.0199998 0.0199998 0.0199997 0.0199997 0.0199997 0.0199997 0.0199996 0.0199996 0.0199996 0.0199995 0.0199995 0.0199994 0.0199994 0.0199993 0.0199993 0.0199992 0.0199991 0.0199991 0.019999 0.0199989 0.0199988 0.0199987 0.0199986 0.0199985 0.0199984 0.0199983 0.0199982 0.0199981 0.019998 0.0199978 0.0199977 0.0199976 0.0199974 0.0199973 0.0199971 0.0199969 0.0199968 0.0199966 0.0199965 0.0199963 0.0199962 0.019996 0.0199959 0.0199957 0.0199956 0.0199955 0.0199954 0.0199954 0.0199953 0.0199953 0.0199953 0.0199954 0.0199955 0.0199956 0.0199959 0.0199961 0.0199965 0.0199969 0.0199974 0.019998 0.0199987 0.0199995 0.0200004 0.0200014 0.0200026 0.020004 0.0200055 0.0200072 0.020009 0.0200111 0.0200134 0.0200158 0.0200186 0.0200215 0.0200247 0.0200282 0.020032 0.020036 0.0200404 0.0200451 0.02005 0.0200554 0.020061 0.020067 0.0200734 0.0200801 0.0200872 0.0200947 0.0201025 0.0201107 0.0201194 0.0201284 0.0201378 0.0201475 0.0201577 0.0201682 0.0201792 0.0201904 0.0202021 0.0202141 0.0202263 0.0202389 0.0202518 0.020265 0.0202785 0.0202923 0.0203064 0.0203208 0.0203354 0.0203503 0.0203655 0.0203808 0.0203963 0.020412 0.0204278 0.0204438 0.0204598 0.0204759 0.0204921 0.0205083 0.0205245 0.0205406 0.0205567 0.0205727 0.0205886 0.0206043 0.0206198 0.0206351 0.0206501 0.0206648 0.0206792 0.0206932 0.0207068 0.0207199 0.0207326 0.0207447 0.0207562 0.0207671 0.0207774 0.020787 0.0207958 0.0208039 0.0208112 0.0208176 0.0208232 0.020828 0.0208319 0.0208348 0.0208369 0.0208381 0.0208383 0.0208376 0.0208361 0.0208336 0.0208303 0.0208261 0.020821 0.020815 0.0208082 0.0208005 0.0207921 0.0207828 0.0207729 0.0207623 0.0207512 0.0207394 0.0207271 0.0207144 0.0207013 0.0206879 0.0206742 0.0206603 0.0206463 0.0206322 0.0206182 0.0206042 0.0205904 0.0205767 0.0205634 0.0205503 0.0205377 0.0205254 0.0205137 0.0205024 0.0204918 0.0204817 0.0204722 0.0204634 0.0204552 0.0204477 0.0204408 0.0204346 0.0204291 0.0204243 0.0204201 0.0204165 0.0204135 0.020411 0.0204091 0.0204076 0.0204066 0.020406 0.0204057 0.0204057 0.020406 0.0204064 0.0204069 0.0204075 0.020408 0.0204085 0.0204088 0.0204089 0.0204087 0.0204081 0.020407 0.0204055 0.0204033 0.0204004 0.0203967 0.0203922 0.0203866 0.02038 0.0203719 0.0203622 0.0203503 0.0203357 0.0203184 0.0202986 0.0202764 0.0202522 0.0202259 0.0201974 0.0201668 0.0201339 0.0200985 0.0200603 0.0200192 0.0199749 0.019927 0.0198752 0.0198192 0.0197585 0.0196928 0.0196216 0.0195443 0.0194603 0.0193689 0.019269 0.0191596 0.0190394 0.0189069 0.0187602 0.0185974 0.0184167 0.0182168 0.0179997 0.0177719 0.0175388 0.0173059 0.0170838 0.0168485 0.016546 0.0160958 0.0155116 0.0148056 0.0139955 0.0130485 0.0119965 0.0108187 0.00953988 0.00817215 0.00670885 0.00513461 0.00346202 0.0015987 -0.000412162 -0.00261226 -0.00484555 -0.00734847 -0.00990081 -0.0128273 -0.016341 -0.0204174 -0.0249426 0 0 0 0 0 0 0 0 0 0 0 0 0 0 0 0 0 0 0 0 0 0 0 0 0 0 0 0 0 0 0 0 0 0 0 0 0 0 0 0 0 0 0 0 0 0 0 0 0 0 0 0 0 0 0 0 0 0 0 0 0 0 0 0 0 0 0 0 0 0 0 0 0 0 0 0 0 0 0 0 0 0 0 0 0 0 0 0 0 0 0 0 0 0 0 0 0 0 0 0 0 0 0 0 0 0 0 0 0 0 0 0 0 0 0 0 0 0 0 0 0 0 0 0 0 0 0 0 0 0 0 0 0 0 0 0 0 0 0 0 0 0 0 0 0 0 0 0 0 0 0 0 0 0 0 0 0 0 0 0 0 0 0 0 0 0 0 0 0 0 0 0 0 0 0 0 0 0 0 0 0 0 0 0 0 0 0 0 0 0 0 0 0 0 0 0 0 0 0 0 0 0 0 0 0 0 0 0 0 0 0 0 0 0 0 -0.00461725 -6.50521e-19 
0.02 0.02 0.02 0.02 0.02 0.02 0.02 0.02 0.02 0.02 0.02 0.02 0.02 0.02 0.02 0.02 0.02 0.02 0.02 0.02 0.02 0.02 0.02 0.02 0.02 0.02 0.02 0.02 0.02 0.02 0.02 0.02 0.02 0.02 0.02 0.02 0.02 0.02 0.02 0.02 0.02 0.02 0.02 0.02 0.02 0.02 0.02 0.02 0.02 0.02 0.02 0.02 0.02 0.02 0.02 0.02 0.02 0.02 0.02 0.02 0.02 0.02 0.02 0.02 0.02 0.02 0.02 0.02 0.02 0.02 0.02 0.02 0.02 0.02 0.02 0.02 0.02 0.02 0.02 0.02 0.02 0.02 0.02 0.02 0.02 0.02 0.02 0.02 0.02 0.02 0.02 0.02 0.02 0.02 0.02 0.02 0.02 0.02 0.02 0.02 0.02 0.02 0.02 0.02 0.02 0.02 0.0199999 0.0199999 0.0199999 0.0199999 0.0199999 0.0199999 0.0199999 0.0199999 0.0199999 0.0199999 0.0199999 0.0199998 0.0199998 0.0199998 0.0199998 0.0199998 0.0199997 0.0199997 0.0199997 0.0199997 0.0199996 0.0199996 0.0199996 0.0199995 0.0199995 0.0199994 0.0199994 0.0199993 0.0199993 0.0199992 0.0199992 0.0199991 0.019999 0.0199989 0.0199989 0.0199988 0.0199987 0.0199986 0.0199985 0.0199984 0.0199983 0.0199982 0.019998 0.0199979 0.0199978 0.0199976 0.0199975 0.0199974 0.0199972 0.0199971 0.0199969 0.0199968 0.0199966 0.0199965 0.0199963 0.0199962 0.019996 0.0199959 0.0199958 0.0199957 0.0199956 0.0199956 0.0199955 0.0199955 0.0199956 0.0199956 0.0199957 0.0199959 0.0199961 0.0199964 0.0199967 0.0199971 0.0199977 0.0199982 0.0199989 0.0199997 0.0200007 0.0200017 0.0200029 0.0200042 0.0200057 0.0200074 0.0200092 0.0200113 0.0200135 0.020016 0.0200187 0.0200216 0.0200248 0.0200282 0.0200319 0.0200359 0.0200402 0.0200448 0.0200498 0.020055 0.0200606 0.0200665 0.0200728 0.0200794 0.0200864 0.0200937 0.0201014 0.0201095 0.020118 0.0201269 0.0201361 0.0201457 0.0201557 0.0201661 0.0201768 0.0201879 0.0201993 0.0202111 0.0202232 0.0202356 0.0202483 0.0202613 0.0202745 0.0202881 0.020302 0.0203161 0.0203305 0.0203451 0.0203599 0.020375 0.0203902 0.0204055 0.0204211 0.0204367 0.0204524 0.0204682 0.020484 0.0204998 0.0205156 0.0205314 0.0205471 0.0205627 0.0205782 0.0205935 0.0206086 0.0206235 0.0206381 0.0206524 0.0206664 0.02068 0.0206931 0.0207058 0.020718 0.0207297 0.0207408 0.0207513 0.0207612 0.0207704 0.0207788 0.0207866 0.0207935 0.0207997 0.0208051 0.0208097 0.0208134 0.0208163 0.0208183 0.0208194 0.0208197 0.0208191 0.0208176 0.0208153 0.0208121 0.020808 0.020803 0.0207972 0.0207906 0.0207832 0.0207751 0.0207662 0.0207567 0.0207466 0.0207358 0.0207246 0.0207129 0.0207007 0.0206882 0.0206755 0.0206624 0.0206493 0.020636 0.0206226 0.0206093 0.0205961 0.0205831 0.0205702 0.0205576 0.0205454 0.0205335 0.020522 0.020511 0.0205005 0.0204905 0.0204812 0.0204724 0.0204642 0.0204566 0.0204497 0.0204434 0.0204377 0.0204327 0.0204283 0.0204244 0.0204212 0.0204185 0.0204163 0.0204146 0.0204133 0.0204124 0.0204119 0.0204116 0.0204116 0.0204118 0.0204121 0.0204125 0.020413 0.0204133 0.0204136 0.0204136 0.0204135 0.0204129 0.0204121 0.0204107 0.0204088 0.0204063 0.020403 0.020399 0.0203941 0.0203882 0.0203811 0.0203725 0.0203622 0.0203496 0.0203346 0.0203171 0.0202971 0.0202749 0.0202506 0.0202242 0.0201959 0.0201653 0.0201325 0.0200972 0.0200592 0.0200182 0.019974 0.0199262 0.0198744 0.0198183 0.0197575 0.0196916 0.01962 0.0195423 0.0194576 0.0193652 0.0192641 0.0191533 0.0190314 0.018897 0.0187488 0.0185852 0.0184058 0.0182111 0.0180037 0.0177902 0.0175764 0.0173572 0.0171178 0.0168523 0.0164982 0.0160379 0.0154618 0.0147681 0.0139637 0.0130389 0.0120077 0.0108681 0.00962937 0.00828915 0.00684528 0.00526298 0.00352416 0.00163778 -0.000374001 -0.0025342 -0.00484533 -0.00727421 -0.00998536 -0.0127936 -0.0160556 -0.018693 -0.0235428 -0.0284249 -0.0348182 0 0 0 0 0 0 0 0 0 0 0 0 0 0 0 0 0 0 0 0 0 0 0 0 0 0 0 0 0 0 0 0 0 0 0 0 0 0 0 0 0 0 0 0 0 0 0 0 0 0 0 0 0 0 0 0 0 0 0 0 0 0 0 0 0 0 0 0 0 0 0 0 0 0 0 0 0 0 0 0 0 0 0 0 0 0 0 0 0 0 0 0 0 0 0 0 0 0 0 0 0 0 0 0 0 0 0 0 0 0 0 0 0 0 0 0 0 0 0 0 0 0 0 0 0 0 0 0 0 0 0 0 0 0 0 0 0 0 0 0 0 0 0 0 0 0 0 0 0 0 0 0 0 0 0 0 0 0 0 0 0 0 0 0 0 0 0 0 0 0 0 0 0 0 0 0 0 0 0 0 0 0 0 0 0 0 0 0 0 0 0 0 0 0 0 0 0 0 0 0 0 0 0 0 0 0 0 0 0 0 0 0 -0.016517 -0.00839167 -1.30104e-18 
0.02 0.02 0.02 0.02 0.02 0.02 0.02 0.02 0.02 0.02 0.02 0.02 0.02 0.02 0.02 0.02 0.02 0.02 0.02 0.02 0.02 0.02 0.02 0.02 0.02 0.02 0.02 0.02 0.02 0.02 0.02 0.02 0.02 0.02 0.02 0.02 0.02 0.02 0.02 0.02 0.02 0.02 0.02 0.02 0.02 0.02 0.02 0.02 0.02 0.02 0.02 0.02 0.02 0.02 0.02 0.02 0.02 0.02 0.02 0.02 0.02 0.02 0.02 0.02 0.02 0.02 0.02 0.02 0.02 0.02 0.02 0.02 0.02 0.02 0.02 0.02 0.02 0.02 0.02 0.02 0.02 0.02 0.02 0.02 0.02 0.02 0.02 0.02 0.02 0.02 0.02 0.02 0.02 0.02 0.02 0.02 0.02 0.02 0.02 0.02 0.02 0.02 0.02 0.02 0.02 0.02 0.0199999 0.0199999 0.0199999 0.0199999 0.0199999 0.0199999 0.0199999 0.0199999 0.0199999 0.0199999 0.0199999 0.0199998 0.0199998 0.0199998 0.0199998 0.0199998 0.0199998 0.0199997 0.0199997 0.0199997 0.0199997 0.0199996 0.0199996 0.0199995 0.0199995 0.0199995 0.0199994 0.0199994 0.0199993 0.0199993 0.0199992 0.0199991 0.0199991 0.019999 0.0199989 0.0199988 0.0199987 0.0199987 0.0199986 0.0199985 0.0199983 0.0199982 0.0199981 0.019998 0.0199979 0.0199977 0.0199976 0.0199975 0.0199973 0.0199972 0.019997 0.0199969 0.0199968 0.0199966 0.0199965 0.0199964 0.0199962 0.0199961 0.019996 0.0199959 0.0199959 0.0199958 0.0199958 0.0199958 0.0199958 0.0199959 0.019996 0.0199962 0.0199964 0.0199967 0.0199971 0.0199975 0.019998 0.0199986 0.0199993 0.0200001 0.020001 0.020002 0.0200032 0.0200046 0.020006 0.0200077 0.0200095 0.0200115 0.0200137 0.0200162 0.0200188 0.0200217 0.0200249 0.0200282 0.0200319 0.0200358 0.0200401 0.0200446 0.0200494 0.0200546 0.0200601 0.0200659 0.020072 0.0200785 0.0200854 0.0200926 0.0201002 0.0201081 0.0201164 0.0201251 0.0201341 0.0201435 0.0201533 0.0201635 0.020174 0.0201849 0.0201961 0.0202076 0.0202195 0.0202316 0.0202441 0.0202568 0.0202698 0.0202831 0.0202966 0.0203104 0.0203245 0.0203388 0.0203533 0.0203679 0.0203828 0.0203978 0.0204129 0.0204281 0.0204434 0.0204588 0.0204742 0.0204896 0.020505 0.0205203 0.0205356 0.0205507 0.0205658 0.0205806 0.0205952 0.0206096 0.0206238 0.0206376 0.0206511 0.0206641 0.0206768 0.0206891 0.0207008 0.020712 0.0207227 0.0207327 0.0207422 0.020751 0.0207591 0.0207665 0.0207732 0.0207791 0.0207843 0.0207887 0.0207922 0.020795 0.020797 0.0207981 0.0207983 0.0207977 0.0207963 0.020794 0.0207909 0.0207869 0.0207821 0.0207766 0.0207703 0.0207632 0.0207554 0.020747 0.020738 0.0207283 0.0207182 0.0207075 0.0206964 0.020685 0.0206732 0.0206611 0.0206489 0.0206365 0.0206241 0.0206116 0.0205992 0.0205868 0.0205747 0.0205627 0.020551 0.0205397 0.0205286 0.0205181 0.0205079 0.0204983 0.0204891 0.0204805 0.0204725 0.020465 0.0204582 0.0204519 0.0204462 0.0204411 0.0204366 0.0204327 0.0204293 0.0204264 0.0204241 0.0204221 0.0204207 0.0204196 0.0204188 0.0204183 0.0204181 0.0204181 0.0204182 0.0204184 0.0204187 0.0204189 0.020419 0.020419 0.0204188 0.0204183 0.0204175 0.0204162 0.0204145 0.0204122 0.0204093 0.0204056 0.0204012 0.0203959 0.0203895 0.0203818 0.0203726 0.0203616 0.0203485 0.020333 0.0203152 0.020295 0.0202727 0.0202484 0.0202221 0.0201938 0.0201634 0.0201307 0.0200955 0.0200576 0.0200168 0.0199727 0.0199249 0.0198732 0.019817 0.0197561 0.0196899 0.0196179 0.0195395 0.019454 0.0193606 0.0192582 0.0191458 0.0190221 0.018886 0.0187367 0.0185735 0.018397 0.0182093 0.0180131 0.0178114 0.0176065 0.0173906 0.0171447 0.0168398 0.0164646 0.0159934 0.0154174 0.0147329 0.0139421 0.013043 0.0120403 0.0109369 0.00973167 0.00841604 0.00696781 0.00538759 0.00365325 0.00176998 -0.000260891 -0.00244665 -0.00478898 -0.00725869 -0.00990547 -0.0128872 -0.0160396 -0.0195357 -0.0227889 -0.0272373 -0.0326608 -0.0383063 -0.0476192 0 0 0 0 0 0 0 0 0 0 0 0 0 0 0 0 0 0 0 0 0 0 0 0 0 0 0 0 0 0 0 0 0 0 0 0 0 0 0 0 0 0 0 0 0 0 0 0 0 0 0 0 0 0 0 0 0 0 0 0 0 0 0 0 0 0 0 0 0 0 0 0 0 0 0 0 0 0 0 0 0 0 0 0 0 0 0 0 0 0 0 0 0 0 0 0 0 0 0 0 0 0 0 0 0 0 0 0 0 0 0 0 0 0 0 0 0 0 0 0 0 0 0 0 0 0 0 0 0 0 0 0 0 0 0 0 0 0 0 0 0 0 0 0 0 0 0 0 0 0 0 0 0 0 0 0 0 0 0 0 0 0 0 0 0 0 0 0 0 0 0 0 0 0 0 0 0 0 0 0 0 0 0 0 0 0 0 0 0 0 0 0 0 0 0 0 0 0 0 0 0 0 0 0 0 0 0 0 -0.0345186 -0.0288094 -0.0206769 -0.0112744 6.50521e-19 