# vtk DataFile Version 2.0
iteration 1377
ASCII

DATASET STRUCTURED_POINTS
DIMENSIONS 621 64 1
ORIGIN 0 0 0
SPACING 0.00161031 0.00161031 0.00161031

POINT_DATA 39744
SCALARS P float 1
LOOKUP_TABLE default
0 0 0 0 0 0 0 0 0 0 0 0 0 0 0 0 0 0 0 0 0 0 0 0 0 0 0 0 0 0 0 0 0 0 0 0 0 0 0 0 0 0 0 0 0 0 0 0 0 0 0 0 0 0 0 0 0 0 0 0 0 0 0 0 0 0 0 0 0 0 0 0 0 0 0 0 0 0 0 0 0 0 0 0 0 0 0 0 0 0 0 0 0 0 0 0 0 0 0 0 0 0 0 0 0 0 0 0 0 0 0 0 0 0 0 0 0 0 0 0 0 0 0 0 0 0 0 0 0 0 0 0 0 0 0 0 0 0 0 0 0 0 0 0 0 0 0 0 0 0 0 0 0 0 0 0 0 0 0 0 0 0 0 0 0 0 0 0 0 0 0 0 0 0 0 0 0 0 0 0 0 0 0 0 0 0 0 0 0 0 0 0 0 0 0 0 0 0 0 0 0 0 0 0 0 0 0 0 0 0 0 0 0 0 0 0 0 0 0 0 0 0 0 0 0 0 0 0 0 0 0 0 0 0 0 0 0 0 0 0 0 0 0 0 0 0 0 0 0 0 0 0 0 0 0 0 0 0 0 0 0 0 0 0 0 0 0 0 0 0 0 0 0 0 0 0 0 0 0 0 0 0 0 0 0 0 0 0 0 0 0 0 0 0 0 0 0 0 0 0 0 0 0 0 0 0 0 0 0 0 0 0 0 0 0 0 0 0 0 0 0 0 0 0 0 0 0 0 0 0 0 0 0 0 0 0 0 0 0 0 0 0 0 0 0 0 0 0 0 0 0 0 0 0 0 0 0 0 0 0 0 0 0 0 0 0 0 0 0 0 0 0 0 0 0 0 0 0 0 0 0 0 0 0 0 0 0 0 0 0 0 0 0 0 0 0 0 0 0 0 0 0 0 0 0 0 0 0 0 0 0 0 0 0 0 0 0 0 0 0 0 0 0 0 0 0 0 0 0 0 0 0 0 0 0 0 0 0 0 0 0 0 0 0 0 0 0 0 0 0 0 0 0 0 0 0 0 0 0 0 0 0 0 0 0 0 0 0 0 0 0 0 0 0 0 0 0 0 0 0 0 0 0 0 0 0 0 0 0 0 0 0 0 0 0 0 0 0 0 0 0 0 0 0 0 0 0 0 0 0 0 0 0 0 0 0 0 0 0 0 0 0 0 0 0 0 0 0 0 0 0 0 0 0 0 0 0 0 0 0 0 0 0 0 0 0 0 0 0 0 0 0 0 0 0 0 0 0 0 0 0 0 0 0 0 0 0 0 0 0 0 0 0 0 0 0 0 0 0 0 0 0 0 0 0 0 0 0 0 0 0 0 0 0 0 0 0 0 0 0 0 0 0 0 0 0 0 0 0 0 0 0 0 0 0 0 0 0 0 0 0 
0.02 0.02 0.02 0.02 0.02 0.02 0.02 0.02 0.02 0.02 0.02 0.02 0.02 0.02 0.02 0.02 0.02 0.02 0.02 0.02 0.02 0.02 0.02 0.02 0.02 0.02 0.02 0.02 0.02 0.02 0.02 0.02 0.02 0.02 0.02 0.02 0.02 0.02 0.02 0.02 0.02 0.02 0.02 0.02 0.02 0.02 0.02 0.02 0.02 0.02 0.02 0.02 0.02 0.02 0.02 0.02 0.02 0.02 0.02 0.02 0.02 0.02 0.02 0.02 0.02 0.02 0.02 0.02 0.02 0.02 0.02 0.02 0.02 0.02 0.02 0.02 0.02 0.02 0.0199999 0.0199999 0.0199999 0.0199999 0.0199999 0.0199999 0.0199999 0.0199999 0.0199999 0.0199999 0.0199998 0.0199998 0.0199998 0.0199998 0.0199998 0.0199997 0.0199997 0.0199997 0.0199996 0.0199996 0.0199996 0.0199995 0.0199995 0.0199994 0.0199994 0.0199993 0.0199992 0.0199991 0.0199991 0.019999 0.0199989 0.0199988 0.0199987 0.0199986 0.0199984 0.0199983 0.0199982 0.019998 0.0199978 0.0199977 0.0199975 0.0199973 0.0199971 0.0199968 0.0199966 0.0199963 0.0199961 0.0199958 0.0199955 0.0199952 0.0199949 0.0199946 0.0199942 0.0199939 0.0199935 0.0199932 0.0199928 0.0199924 0.019992 0.0199917 0.0199913 0.019991 0.0199906 0.0199903 0.01999 0.0199897 0.0199895 0.0199893 0.0199892 0.0199892 0.0199892 0.0199893 0.0199895 0.0199898 0.0199903 0.0199909 0.0199917 0.0199926 0.0199938 0.0199951 0.0199967 0.0199986 0.0200007 0.0200031 0.0200059 0.020009 0.0200125 0.0200164 0.0200207 0.0200254 0.0200306 0.0200363 0.0200426 0.0200493 0.0200566 0.0200645 0.020073 0.0200821 0.0200918 0.0201022 0.0201132 0.0201249 0.0201373 0.0201503 0.020164 0.0201784 0.0201935 0.0202092 0.0202256 0.0202426 0.0202603 0.0202786 0.0202975 0.020317 0.0203368 0.0203563 0.0203764 0.0203973 0.0204188 0.0204408 0.0204633 0.0204861 0.0205093 0.0205328 0.0205565 0.0205805 0.0206046 0.0206289 0.0206533 0.0206778 0.0207022 0.0207267 0.0207511 0.0207754 0.0207995 0.0208234 0.0208471 0.0208704 0.0208934 0.020916 0.0209382 0.0209598 0.0209808 0.0210011 0.0210208 0.0210396 0.0210576 0.0210747 0.0210908 0.0211057 0.0211196 0.0211322 0.0211435 0.0211534 0.0211619 0.0211687 0.021174 0.0211775 0.0211793 0.0211791 0.0211771 0.021173 0.0211668 0.0211584 0.0211479 0.0211351 0.0211199 0.0211023 0.0210823 0.0210611 0.0210379 0.0210137 0.0209886 0.0209619 0.0209336 0.020904 0.020873 0.020841 0.0208079 0.0207741 0.0207396 0.0207046 0.0206693 0.0206338 0.0205985 0.0205633 0.0205286 0.0204944 0.020461 0.0204285 0.0203971 0.0203668 0.0203378 0.0203103 0.0202842 0.0202597 0.0202367 0.0202155 0.0201958 0.0201778 0.0201614 0.0201464 0.020133 0.0201209 0.0201101 0.0201004 0.0200917 0.0200838 0.0200766 0.0200699 0.0200635 0.0200572 0.0200508 0.020044 0.0200365 0.0200274 0.020011 0.0199819 0.0199562 0.0199302 0.0199006 0.0198658 0.0198251 0.0197779 0.0197237 0.019662 0.0195924 0.0195143 0.0194269 0.0193292 0.0192204 0.0190992 0.0189643 0.0188146 0.0186484 0.0184644 0.0182607 0.018036 0.0177899 0.0175185 0.0172222 0.016911 0.0165683 0.016295 0.0162905 0.0189644 0 0 0 0 0 0 0 0 0 0 0 0 0 0 0 0 0 0 0 0 0 0 0 0 0 0 0 0 0 0 0 0 0 0 0 0 0 0 0 0 0 0 0 0 0 0 0 0 0 0 0 0 0 0 0 0 0 0 0 0 0 0 0 0 0 0 0 0 0 0 0 0 0 0 0 0 0 0 0 0 0 0 0 0 0 0 0 0 0 0 0 0 0 0 0 0 0 0 0 0 0 0 0 0 0 0 0 0 0 0 0 0 0 0 0 0 0 0 0 0 0 0 0 0 0 0 0 0 0 0 0 0 0 0 0 0 0 0 0 0 0 0 0 0 0 0 0 0 0 0 0 0 0 0 0 0 0 0 0 0 0 0 0 0 0 0 0 0 0 0 0 0 0 0 0 0 0 0 0 0 0 0 0 0 0 0 0 0 0 0 0 0 0 0 0 0 0 0 0 0 0 0 0 0 0 0 0 0 0 0 0 0 0 0 0 0 0 0 0 0 0 0 0 0 0 0 0 0 0 0 0 0 0 0 0 0 0 0 0 0 0 0 0 0 0 0 0 0 0 0 0 0 0 0 0 0 0 0 0 0 0 0 0 0 0 0 0 0 0 0 0 0 0 0 0 0 0 0 0 0 0 0 0 0 0 0 0 0 0 0 0 0 0 0 0 0 0 
0.02 0.02 0.02 0.02 0.02 0.02 0.02 0.02 0.02 0.02 0.02 0.02 0.02 0.02 0.02 0.02 0.02 0.02 0.02 0.02 0.02 0.02 0.02 0.02 0.02 0.02 0.02 0.02 0.02 0.02 0.02 0.02 0.02 0.02 0.02 0.02 0.02 0.02 0.02 0.02 0.02 0.02 0.02 0.02 0.02 0.02 0.02 0.02 0.02 0.02 0.02 0.02 0.02 0.02 0.02 0.02 0.02 0.02 0.02 0.02 0.02 0.02 0.02 0.02 0.02 0.02 0.02 0.02 0.02 0.02 0.02 0.02 0.02 0.02 0.02 0.02 0.02 0.02 0.02 0.0199999 0.0199999 0.0199999 0.0199999 0.0199999 0.0199999 0.0199999 0.0199999 0.0199999 0.0199998 0.0199998 0.0199998 0.0199998 0.0199998 0.0199997 0.0199997 0.0199997 0.0199996 0.0199996 0.0199996 0.0199995 0.0199995 0.0199994 0.0199994 0.0199993 0.0199992 0.0199992 0.0199991 0.019999 0.0199989 0.0199988 0.0199987 0.0199986 0.0199985 0.0199983 0.0199982 0.019998 0.0199979 0.0199977 0.0199975 0.0199973 0.0199971 0.0199969 0.0199966 0.0199964 0.0199961 0.0199959 0.0199956 0.0199953 0.019995 0.0199947 0.0199943 0.019994 0.0199936 0.0199933 0.0199929 0.0199925 0.0199922 0.0199918 0.0199914 0.0199911 0.0199908 0.0199904 0.0199902 0.0199899 0.0199897 0.0199895 0.0199894 0.0199893 0.0199894 0.0199895 0.0199897 0.01999 0.0199905 0.0199911 0.0199918 0.0199928 0.0199939 0.0199953 0.0199968 0.0199987 0.0200008 0.0200032 0.020006 0.020009 0.0200125 0.0200163 0.0200206 0.0200253 0.0200305 0.0200362 0.0200423 0.020049 0.0200563 0.0200641 0.0200726 0.0200816 0.0200912 0.0201015 0.0201125 0.0201241 0.0201363 0.0201493 0.0201629 0.0201771 0.0201921 0.0202077 0.020224 0.0202409 0.0202584 0.0202766 0.0202953 0.0203147 0.0203343 0.0203542 0.0203744 0.0203952 0.0204166 0.0204384 0.0204608 0.0204835 0.0205065 0.0205299 0.0205535 0.0205773 0.0206014 0.0206255 0.0206498 0.0206742 0.0206985 0.0207229 0.0207472 0.0207713 0.0207954 0.0208192 0.0208428 0.020866 0.0208889 0.0209114 0.0209335 0.020955 0.0209759 0.0209962 0.0210158 0.0210346 0.0210525 0.0210695 0.0210855 0.0211005 0.0211142 0.0211268 0.021138 0.0211479 0.0211562 0.021163 0.0211682 0.0211716 0.0211732 0.0211729 0.0211707 0.0211664 0.02116 0.0211515 0.0211408 0.0211279 0.021113 0.0210962 0.0210772 0.0210566 0.0210351 0.021012 0.0209871 0.0209607 0.0209328 0.0209035 0.0208729 0.0208411 0.0208084 0.0207749 0.0207407 0.020706 0.020671 0.0206359 0.0206008 0.0205659 0.0205314 0.0204974 0.0204642 0.0204319 0.0204006 0.0203704 0.0203415 0.020314 0.0202879 0.0202633 0.0202403 0.020219 0.0201992 0.020181 0.0201643 0.0201492 0.0201354 0.020123 0.0201118 0.0201017 0.0200926 0.0200842 0.0200765 0.0200692 0.0200622 0.0200552 0.0200481 0.0200405 0.0200321 0.0200217 0.0200063 0.0199826 0.0199569 0.0199298 0.019899 0.0198632 0.0198219 0.0197742 0.0197197 0.0196579 0.0195882 0.01951 0.0194225 0.0193249 0.019216 0.0190949 0.0189601 0.0188104 0.0186444 0.0184605 0.018257 0.0180326 0.0177875 0.0175185 0.017228 0.0169294 0.0166462 0.0163523 0.0163233 0.0166513 0.0163486 0.0155271 0.0149104 0.0142887 0.0136875 0.0130452 0.012342 0.0115292 0.0105608 0.00957992 0.00863834 0.00785861 0.00823392 0 0 0 0 0 0 0 0 0 0 0 0 0 0 0 0 0 0 0 0 0 0 0 0 0 0 0 0 0 0 0 0 0 0 0 0 0 0 0 0 0 0 0 0 0 0 0 0 0 0 0 0 0 0 0 0 0 0 0 0 0 0 0 0 0 0 0 0 0 0 0 0 0 0 0 0 0 0 0 0 0 0 0 0 0 0 0 0 0 0 0 0 0 0 0 0 0 0 0 0 0 0 0 0 0 0 0 0 0 0 0 0 0 0 0 0 0 0 0 0 0 0 0 0 0 0 0 0 0 0 0 0 0 0 0 0 0 0 0 0 0 0 0 0 0 0 0 0 0 0 0 0 0 0 0 0 0 0 0 0 0 0 0 0 0 0 0 0 0 0 0 0 0 0 0 0 0 0 0 0 0 0 0 0 0 0 0 0 0 0 0 0 0 0 0 0 0 0 0 0 0 0 0 0 0 0 0 0 0 0 0 0 0 0 0 0 0 0 0 0 0 0 0 0 0 0 0 0 0 0 0 0 0 0 0 0 0 0 0 0 0 0 0 0 0 0 0 0 0 0 0 0 0 0 0 0 0 0 0 0 0 0 0 0 0 0 0 0 0 0 0 0 0 0 0 0 0 0 0 0 0 0 0 0 
0.02 0.02 0.02 0.02 0.02 0.02 0.02 0.02 0.02 0.02 0.02 0.02 0.02 0.02 0.02 0.02 0.02 0.02 0.02 0.02 0.02 0.02 0.02 0.02 0.02 0.02 0.02 0.02 0.02 0.02 0.02 0.02 0.02 0.02 0.02 0.02 0.02 0.02 0.02 0.02 0.02 0.02 0.02 0.02 0.02 0.02 0.02 0.02 0.02 0.02 0.02 0.02 0.02 0.02 0.02 0.02 0.02 0.02 0.02 0.02 0.02 0.02 0.02 0.02 0.02 0.02 0.02 0.02 0.02 0.02 0.02 0.02 0.02 0.02 0.02 0.02 0.02 0.02 0.02 0.0199999 0.0199999 0.0199999 0.0199999 0.0199999 0.0199999 0.0199999 0.0199999 0.0199999 0.0199998 0.0199998 0.0199998 0.0199998 0.0199998 0.0199997 0.0199997 0.0199997 0.0199996 0.0199996 0.0199996 0.0199995 0.0199995 0.0199994 0.0199994 0.0199993 0.0199992 0.0199992 0.0199991 0.019999 0.0199989 0.0199988 0.0199987 0.0199986 0.0199985 0.0199983 0.0199982 0.0199981 0.0199979 0.0199977 0.0199975 0.0199974 0.0199971 0.0199969 0.0199967 0.0199965 0.0199962 0.0199959 0.0199957 0.0199954 0.0199951 0.0199947 0.0199944 0.0199941 0.0199937 0.0199934 0.019993 0.0199927 0.0199923 0.0199919 0.0199916 0.0199912 0.0199909 0.0199906 0.0199903 0.0199901 0.0199899 0.0199897 0.0199896 0.0199896 0.0199896 0.0199897 0.0199899 0.0199903 0.0199907 0.0199913 0.0199921 0.019993 0.0199942 0.0199955 0.0199971 0.0199989 0.020001 0.0200034 0.0200062 0.0200092 0.0200127 0.0200165 0.0200207 0.0200254 0.0200306 0.0200362 0.0200423 0.020049 0.0200562 0.020064 0.0200724 0.0200813 0.0200909 0.0201011 0.020112 0.0201235 0.0201357 0.0201485 0.020162 0.0201761 0.020191 0.0202065 0.0202226 0.0202394 0.0202568 0.0202748 0.0202934 0.0203126 0.0203322 0.020352 0.0203723 0.0203929 0.0204141 0.0204358 0.020458 0.0204805 0.0205033 0.0205265 0.0205499 0.0205735 0.0205974 0.0206213 0.0206454 0.0206695 0.0206937 0.0207178 0.0207419 0.0207658 0.0207896 0.0208132 0.0208366 0.0208596 0.0208823 0.0209046 0.0209264 0.0209477 0.0209684 0.0209884 0.0210077 0.0210263 0.0210439 0.0210607 0.0210765 0.0210911 0.0211046 0.0211169 0.0211278 0.0211374 0.0211454 0.0211519 0.0211567 0.0211597 0.021161 0.0211603 0.0211577 0.0211531 0.0211465 0.0211378 0.0211271 0.0211146 0.0211001 0.0210838 0.021066 0.0210467 0.0210257 0.0210029 0.0209784 0.0209524 0.0209249 0.020896 0.0208659 0.0208347 0.0208026 0.0207696 0.020736 0.0207019 0.0206675 0.020633 0.0205985 0.0205642 0.0205303 0.020497 0.0204643 0.0204325 0.0204017 0.0203721 0.0203437 0.0203166 0.0202909 0.0202668 0.0202441 0.0202231 0.0202036 0.0201856 0.0201691 0.0201541 0.0201405 0.0201282 0.020117 0.0201069 0.0200977 0.0200892 0.0200814 0.0200739 0.0200667 0.0200595 0.020052 0.0200441 0.0200351 0.0200241 0.0200087 0.0199873 0.0199616 0.0199328 0.0199004 0.0198633 0.0198209 0.0197724 0.0197172 0.0196549 0.0195847 0.0195062 0.0194183 0.0193204 0.0192112 0.0190897 0.0189546 0.0188045 0.0186382 0.018454 0.0182504 0.0180263 0.0177829 0.0175215 0.0172428 0.0169763 0.0167319 0.0165224 0.0164044 0.0163206 0.0160406 0.0154253 0.0148673 0.0142539 0.0136432 0.0129824 0.0122528 0.0114389 0.0105378 0.00962507 0.00869761 0.0078794 0.00724459 0.00623779 0.00493482 0.00364235 0.00226656 0.00088214 -0.000624834 -0.00179041 0 0 0 0 0 0 0 0 0 0 0 0 0 0 0 0 0 0 0 0 0 0 0 0 0 0 0 0 0 0 0 0 0 0 0 0 0 0 0 0 0 0 0 0 0 0 0 0 0 0 0 0 0 0 0 0 0 0 0 0 0 0 0 0 0 0 0 0 0 0 0 0 0 0 0 0 0 0 0 0 0 0 0 0 0 0 0 0 0 0 0 0 0 0 0 0 0 0 0 0 0 0 0 0 0 0 0 0 0 0 0 0 0 0 0 0 0 0 0 0 0 0 0 0 0 0 0 0 0 0 0 0 0 0 0 0 0 0 0 0 0 0 0 0 0 0 0 0 0 0 0 0 0 0 0 0 0 0 0 0 0 0 0 0 0 0 0 0 0 0 0 0 0 0 0 0 0 0 0 0 0 0 0 0 0 0 0 0 0 0 0 0 0 0 0 0 0 0 0 0 0 0 0 0 0 0 0 0 0 0 0 0 0 0 0 0 0 0 0 0 0 0 0 0 0 0 0 0 0 0 0 0 0 0 0 0 0 0 0 0 0 0 0 0 0 0 0 0 0 0 0 0 0 0 0 0 0 0 0 0 0 0 0 0 0 0 0 0 0 0 0 0 0 0 0 0 -6.50521e-19 
0.02 0.02 0.02 0.02 0.02 0.02 0.02 0.02 0.02 0.02 0.02 0.02 0.02 0.02 0.02 0.02 0.02 0.02 0.02 0.02 0.02 0.02 0.02 0.02 0.02 0.02 0.02 0.02 0.02 0.02 0.02 0.02 0.02 0.02 0.02 0.02 0.02 0.02 0.02 0.02 0.02 0.02 0.02 0.02 0.02 0.02 0.02 0.02 0.02 0.02 0.02 0.02 0.02 0.02 0.02 0.02 0.02 0.02 0.02 0.02 0.02 0.02 0.02 0.02 0.02 0.02 0.02 0.02 0.02 0.02 0.02 0.02 0.02 0.02 0.02 0.02 0.02 0.02 0.02 0.0199999 0.0199999 0.0199999 0.0199999 0.0199999 0.0199999 0.0199999 0.0199999 0.0199999 0.0199999 0.0199998 0.0199998 0.0199998 0.0199998 0.0199997 0.0199997 0.0199997 0.0199997 0.0199996 0.0199996 0.0199995 0.0199995 0.0199994 0.0199994 0.0199993 0.0199993 0.0199992 0.0199991 0.019999 0.0199989 0.0199988 0.0199987 0.0199986 0.0199985 0.0199984 0.0199982 0.0199981 0.0199979 0.0199978 0.0199976 0.0199974 0.0199972 0.019997 0.0199968 0.0199965 0.0199963 0.019996 0.0199957 0.0199955 0.0199952 0.0199949 0.0199945 0.0199942 0.0199939 0.0199935 0.0199932 0.0199928 0.0199925 0.0199921 0.0199918 0.0199915 0.0199912 0.0199909 0.0199906 0.0199904 0.0199902 0.01999 0.0199899 0.0199899 0.0199899 0.01999 0.0199903 0.0199906 0.0199911 0.0199917 0.0199925 0.0199934 0.0199945 0.0199959 0.0199975 0.0199993 0.0200014 0.0200038 0.0200065 0.0200096 0.020013 0.0200168 0.020021 0.0200257 0.0200308 0.0200363 0.0200424 0.020049 0.0200562 0.0200639 0.0200722 0.0200811 0.0200906 0.0201007 0.0201115 0.0201229 0.0201349 0.0201476 0.020161 0.020175 0.0201897 0.020205 0.020221 0.0202376 0.0202548 0.0202726 0.020291 0.0203099 0.0203294 0.0203492 0.0203693 0.0203898 0.0204108 0.0204323 0.0204541 0.0204763 0.0204989 0.0205218 0.0205449 0.0205683 0.0205918 0.0206154 0.0206392 0.020663 0.0206869 0.0207107 0.0207344 0.020758 0.0207815 0.0208047 0.0208277 0.0208504 0.0208727 0.0208947 0.0209161 0.020937 0.0209573 0.020977 0.0209959 0.021014 0.0210313 0.0210477 0.021063 0.0210772 0.0210903 0.0211021 0.0211126 0.0211217 0.0211293 0.0211353 0.0211396 0.0211422 0.021143 0.021142 0.0211392 0.0211344 0.0211278 0.0211194 0.0211091 0.021097 0.0210833 0.0210679 0.0210508 0.0210318 0.0210112 0.0209888 0.0209649 0.0209394 0.0209126 0.0208844 0.020855 0.0208245 0.0207932 0.020761 0.0207283 0.0206951 0.0206615 0.0206279 0.0205943 0.0205609 0.0205279 0.0204954 0.0204637 0.0204327 0.0204028 0.0203739 0.0203463 0.0203199 0.0202949 0.0202714 0.0202494 0.0202289 0.0202098 0.0201923 0.0201763 0.0201616 0.0201482 0.0201361 0.0201251 0.0201151 0.0201059 0.0200974 0.0200895 0.0200819 0.0200745 0.0200671 0.0200593 0.0200509 0.0200414 0.0200295 0.0200138 0.0199929 0.019967 0.0199371 0.0199032 0.0198647 0.0198209 0.0197713 0.0197152 0.019652 0.0195812 0.019502 0.0194136 0.0193151 0.0192054 0.0190833 0.0189477 0.0187972 0.0186304 0.0184459 0.0182424 0.0180196 0.0177803 0.0175306 0.017275 0.0170359 0.0168328 0.016643 0.0163801 0.0162137 0.0158482 0.015344 0.0148131 0.0142289 0.0136084 0.0129365 0.0121934 0.0113844 0.0105276 0.00965679 0.00878126 0.00792186 0.00706751 0.00605465 0.00483188 0.00356897 0.00222998 0.000882861 -0.000443152 -0.00201277 -0.00362088 -0.00540354 -0.00717414 -0.00982687 0 0 0 0 0 0 0 0 0 0 0 0 0 0 0 0 0 0 0 0 0 0 0 0 0 0 0 0 0 0 0 0 0 0 0 0 0 0 0 0 0 0 0 0 0 0 0 0 0 0 0 0 0 0 0 0 0 0 0 0 0 0 0 0 0 0 0 0 0 0 0 0 0 0 0 0 0 0 0 0 0 0 0 0 0 0 0 0 0 0 0 0 0 0 0 0 0 0 0 0 0 0 0 0 0 0 0 0 0 0 0 0 0 0 0 0 0 0 0 0 0 0 0 0 0 0 0 0 0 0 0 0 0 0 0 0 0 0 0 0 0 0 0 0 0 0 0 0 0 0 0 0 0 0 0 0 0 0 0 0 0 0 0 0 0 0 0 0 0 0 0 0 0 0 0 0 0 0 0 0 0 0 0 0 0 0 0 0 0 0 0 0 0 0 0 0 0 0 0 0 0 0 0 0 0 0 0 0 0 0 0 0 0 0 0 0 0 0 0 0 0 0 0 0 0 0 0 0 0 0 0 0 0 0 0 0 0 0 0 0 0 0 0 0 0 0 0 0 0 0 0 0 0 0 0 0 0 0 0 0 0 0 0 0 0 0 0 0 0 0 0 0 2.1684e-19 
0.02 0.02 0.02 0.02 0.02 0.02 0.02 0.02 0.02 0.02 0.02 0.02 0.02 0.02 0.02 0.02 0.02 0.02 0.02 0.02 0.02 0.02 0.02 0.02 0.02 0.02 0.02 0.02 0.02 0.02 0.02 0.02 0.02 0.02 0.02 0.02 0.02 0.02 0.02 0.02 0.02 0.02 0.02 0.02 0.02 0.02 0.02 0.02 0.02 0.02 0.02 0.02 0.02 0.02 0.02 0.02 0.02 0.02 0.02 0.02 0.02 0.02 0.02 0.02 0.02 0.02 0.02 0.02 0.02 0.02 0.02 0.02 0.02 0.02 0.02 0.02 0.02 0.02 0.02 0.0199999 0.0199999 0.0199999 0.0199999 0.0199999 0.0199999 0.0199999 0.0199999 0.0199999 0.0199999 0.0199998 0.0199998 0.0199998 0.0199998 0.0199998 0.0199997 0.0199997 0.0199997 0.0199996 0.0199996 0.0199996 0.0199995 0.0199995 0.0199994 0.0199993 0.0199993 0.0199992 0.0199991 0.0199991 0.019999 0.0199989 0.0199988 0.0199987 0.0199986 0.0199984 0.0199983 0.0199982 0.019998 0.0199978 0.0199977 0.0199975 0.0199973 0.0199971 0.0199969 0.0199966 0.0199964 0.0199961 0.0199959 0.0199956 0.0199953 0.019995 0.0199947 0.0199944 0.0199941 0.0199937 0.0199934 0.0199931 0.0199927 0.0199924 0.0199921 0.0199918 0.0199915 0.0199912 0.0199909 0.0199907 0.0199905 0.0199904 0.0199903 0.0199903 0.0199904 0.0199905 0.0199908 0.0199911 0.0199916 0.0199922 0.019993 0.0199939 0.0199951 0.0199964 0.019998 0.0199998 0.0200019 0.0200043 0.020007 0.0200101 0.0200134 0.0200172 0.0200214 0.020026 0.0200311 0.0200366 0.0200426 0.0200492 0.0200562 0.0200639 0.0200721 0.0200808 0.0200902 0.0201002 0.0201108 0.0201221 0.020134 0.0201465 0.0201597 0.0201735 0.020188 0.0202031 0.0202189 0.0202352 0.0202522 0.0202698 0.0202879 0.0203066 0.0203257 0.0203453 0.0203653 0.0203856 0.0204064 0.0204275 0.020449 0.0204709 0.0204931 0.0205156 0.0205383 0.0205613 0.0205844 0.0206076 0.020631 0.0206544 0.0206778 0.0207012 0.0207245 0.0207476 0.0207706 0.0207934 0.0208159 0.0208382 0.02086 0.0208814 0.0209024 0.0209228 0.0209426 0.0209617 0.0209801 0.0209977 0.0210145 0.0210303 0.021045 0.0210587 0.0210712 0.0210825 0.0210924 0.021101 0.021108 0.0211135 0.0211175 0.0211197 0.0211203 0.0211192 0.0211163 0.0211117 0.0211053 0.0210972 0.0210874 0.021076 0.0210628 0.0210478 0.0210311 0.0210126 0.0209925 0.0209708 0.0209475 0.0209228 0.0208967 0.0208694 0.020841 0.0208115 0.0207811 0.0207501 0.0207184 0.0206863 0.0206539 0.0206214 0.020589 0.0205568 0.0205249 0.0204936 0.020463 0.0204331 0.0204043 0.0203764 0.0203498 0.0203244 0.0203003 0.0202776 0.0202564 0.0202366 0.0202182 0.0202013 0.0201857 0.0201714 0.0201584 0.0201466 0.0201358 0.0201259 0.0201168 0.0201083 0.0201002 0.0200925 0.0200848 0.0200771 0.0200689 0.0200599 0.0200495 0.0200367 0.0200202 0.0199989 0.0199725 0.0199417 0.0199064 0.0198664 0.0198213 0.0197704 0.0197132 0.019649 0.0195774 0.0194974 0.0194082 0.019309 0.0191986 0.0190758 0.0189395 0.0187884 0.0186212 0.0184367 0.0182343 0.0180147 0.0177828 0.0175479 0.0173178 0.0170971 0.0169041 0.0167171 0.0165005 0.0161712 0.0157614 0.0152906 0.0147694 0.0141992 0.0135726 0.0128948 0.0121521 0.0113591 0.0105321 0.00969154 0.00883168 0.00790915 0.00698401 0.0059186 0.00473392 0.00348063 0.00216254 0.000809564 -0.000611611 -0.00214146 -0.00372425 -0.00539953 -0.00713577 -0.0091392 -0.0113849 -0.0135863 -0.016125 -0.0198777 0 0 0 0 0 0 0 0 0 0 0 0 0 0 0 0 0 0 0 0 0 0 0 0 0 0 0 0 0 0 0 0 0 0 0 0 0 0 0 0 0 0 0 0 0 0 0 0 0 0 0 0 0 0 0 0 0 0 0 0 0 0 0 0 0 0 0 0 0 0 0 0 0 0 0 0 0 0 0 0 0 0 0 0 0 0 0 0 0 0 0 0 0 0 0 0 0 0 0 0 0 0 0 0 0 0 0 0 0 0 0 0 0 0 0 0 0 0 0 0 0 0 0 0 0 0 0 0 0 0 0 0 0 0 0 0 0 0 0 0 0 0 0 0 0 0 0 0 0 0 0 0 0 0 0 0 0 0 0 0 0 0 0 0 0 0 0 0 0 0 0 0 0 0 0 0 0 0 0 0 0 0 0 0 0 0 0 0 0 0 0 0 0 0 0 0 0 0 0 0 0 0 0 0 0 0 0 0 0 0 0 0 0 0 0 0 0 0 0 0 0 0 0 0 0 0 0 0 0 0 0 0 0 0 0 0 0 0 0 0 0 0 0 0 0 0 0 0 0 0 0 0 0 0 0 0 0 0 0 0 0 0 0 0 0 0 0 -0.00502974 -6.50521e-19 
0.02 0.02 0.02 0.02 0.02 0.02 0.02 0.02 0.02 0.02 0.02 0.02 0.02 0.02 0.02 0.02 0.02 0.02 0.02 0.02 0.02 0.02 0.02 0.02 0.02 0.02 0.02 0.02 0.02 0.02 0.02 0.02 0.02 0.02 0.02 0.02 0.02 0.02 0.02 0.02 0.02 0.02 0.02 0.02 0.02 0.02 0.02 0.02 0.02 0.02 0.02 0.02 0.02 0.02 0.02 0.02 0.02 0.02 0.02 0.02 0.02 0.02 0.02 0.02 0.02 0.02 0.02 0.02 0.02 0.02 0.02 0.02 0.02 0.02 0.02 0.02 0.02 0.02 0.02 0.0199999 0.0199999 0.0199999 0.0199999 0.0199999 0.0199999 0.0199999 0.0199999 0.0199999 0.0199999 0.0199998 0.0199998 0.0199998 0.0199998 0.0199998 0.0199997 0.0199997 0.0199997 0.0199996 0.0199996 0.0199996 0.0199995 0.0199995 0.0199994 0.0199994 0.0199993 0.0199992 0.0199992 0.0199991 0.019999 0.0199989 0.0199988 0.0199987 0.0199986 0.0199985 0.0199984 0.0199982 0.0199981 0.0199979 0.0199978 0.0199976 0.0199974 0.0199972 0.019997 0.0199968 0.0199965 0.0199963 0.0199961 0.0199958 0.0199955 0.0199952 0.0199949 0.0199946 0.0199943 0.019994 0.0199937 0.0199934 0.0199931 0.0199928 0.0199925 0.0199922 0.0199919 0.0199916 0.0199914 0.0199912 0.019991 0.0199909 0.0199909 0.0199909 0.0199909 0.0199911 0.0199914 0.0199917 0.0199922 0.0199929 0.0199937 0.0199946 0.0199958 0.0199971 0.0199987 0.0200005 0.0200026 0.020005 0.0200077 0.0200107 0.020014 0.0200178 0.0200219 0.0200265 0.0200315 0.0200369 0.0200429 0.0200493 0.0200563 0.0200638 0.0200719 0.0200806 0.0200898 0.0200997 0.0201101 0.0201212 0.0201329 0.0201452 0.0201582 0.0201718 0.020186 0.0202009 0.0202163 0.0202324 0.0202491 0.0202663 0.0202841 0.0203024 0.0203213 0.0203405 0.0203602 0.0203802 0.0204006 0.0204214 0.0204425 0.020464 0.0204857 0.0205078 0.02053 0.0205525 0.0205751 0.0205979 0.0206207 0.0206436 0.0206664 0.0206893 0.020712 0.0207346 0.020757 0.0207792 0.0208012 0.0208228 0.020844 0.0208648 0.0208851 0.0209049 0.0209241 0.0209426 0.0209603 0.0209773 0.0209934 0.0210085 0.0210227 0.0210357 0.0210476 0.0210583 0.0210676 0.0210756 0.0210822 0.0210874 0.021091 0.021093 0.0210935 0.0210924 0.0210896 0.0210852 0.0210792 0.0210714 0.0210621 0.021051 0.0210381 0.0210236 0.0210074 0.0209895 0.0209701 0.0209491 0.0209267 0.0209029 0.0208778 0.0208515 0.0208242 0.0207959 0.0207668 0.020737 0.0207067 0.0206759 0.020645 0.0206139 0.0205829 0.0205521 0.0205216 0.0204917 0.0204624 0.0204339 0.0204063 0.0203798 0.0203543 0.0203301 0.0203071 0.0202854 0.0202651 0.0202462 0.0202286 0.0202123 0.0201973 0.0201836 0.020171 0.0201595 0.0201489 0.0201391 0.0201301 0.0201215 0.0201133 0.0201053 0.0200973 0.0200891 0.0200803 0.0200705 0.0200591 0.0200451 0.0200274 0.0200052 0.0199781 0.0199462 0.0199096 0.0198682 0.0198216 0.0197694 0.0197109 0.0196457 0.019573 0.0194921 0.019402 0.0193019 0.0191907 0.0190672 0.0189302 0.0187785 0.018611 0.0184272 0.0182274 0.0180134 0.0177909 0.01757 0.0173592 0.0171568 0.0169518 0.0167363 0.0164658 0.0161267 0.0157201 0.015255 0.014734 0.0141648 0.0135374 0.0128581 0.0121248 0.0113502 0.0105424 0.00971294 0.00885303 0.00793863 0.00692704 0.00582664 0.00464812 0.0034002 0.00208183 0.000705235 -0.00074708 -0.00228694 -0.00389067 -0.00555698 -0.00740053 -0.00930795 -0.0114062 -0.0135615 -0.0151892 -0.0186872 -0.0216044 -0.0251171 -0.0301968 0 0 0 0 0 0 0 0 0 0 0 0 0 0 0 0 0 0 0 0 0 0 0 0 0 0 0 0 0 0 0 0 0 0 0 0 0 0 0 0 0 0 0 0 0 0 0 0 0 0 0 0 0 0 0 0 0 0 0 0 0 0 0 0 0 0 0 0 0 0 0 0 0 0 0 0 0 0 0 0 0 0 0 0 0 0 0 0 0 0 0 0 0 0 0 0 0 0 0 0 0 0 0 0 0 0 0 0 0 0 0 0 0 0 0 0 0 0 0 0 0 0 0 0 0 0 0 0 0 0 0 0 0 0 0 0 0 0 0 0 0 0 0 0 0 0 0 0 0 0 0 0 0 0 0 0 0 0 0 0 0 0 0 0 0 0 0 0 0 0 0 0 0 0 0 0 0 0 0 0 0 0 0 0 0 0 0 0 0 0 0 0 0 0 0 0 0 0 0 0 0 0 0 0 0 0 0 0 0 0 0 0 0 0 0 0 0 0 0 0 0 0 0 0 0 0 0 0 0 0 0 0 0 0 0 0 0 0 0 0 0 0 0 0 0 0 0 0 0 0 0 0 0 0 0 0 0 0 0 0 0 0 0 -0.0177814 -0.00909083 -6.50521e-19 
0.02 0.02 0.02 0.02 0.02 0.02 0.02 0.02 0.02 0.02 0.02 0.02 0.02 0.02 0.02 0.02 0.02 0.02 0.02 0.02 0.02 0.02 0.02 0.02 0.02 0.02 0.02 0.02 0.02 0.02 0.02 0.02 0.02 0.02 0.02 0.02 0.02 0.02 0.02 0.02 0.02 0.02 0.02 0.02 0.02 0.02 0.02 0.02 0.02 0.02 0.02 0.02 0.02 0.02 0.02 0.02 0.02 0.02 0.02 0.02 0.02 0.02 0.02 0.02 0.02 0.02 0.02 0.02 0.02 0.02 0.02 0.02 0.02 0.02 0.02 0.02 0.02 0.02 0.02 0.02 0.0199999 0.0199999 0.0199999 0.0199999 0.0199999 0.0199999 0.0199999 0.0199999 0.0199999 0.0199999 0.0199998 0.0199998 0.0199998 0.0199998 0.0199997 0.0199997 0.0199997 0.0199997 0.0199996 0.0199996 0.0199995 0.0199995 0.0199995 0.0199994 0.0199993 0.0199993 0.0199992 0.0199991 0.0199991 0.019999 0.0199989 0.0199988 0.0199987 0.0199986 0.0199984 0.0199983 0.0199982 0.019998 0.0199979 0.0199977 0.0199975 0.0199973 0.0199971 0.0199969 0.0199967 0.0199965 0.0199963 0.019996 0.0199958 0.0199955 0.0199952 0.0199949 0.0199946 0.0199943 0.0199941 0.0199938 0.0199935 0.0199932 0.0199929 0.0199926 0.0199924 0.0199921 0.0199919 0.0199918 0.0199916 0.0199915 0.0199915 0.0199915 0.0199916 0.0199918 0.0199921 0.0199925 0.019993 0.0199937 0.0199945 0.0199955 0.0199966 0.019998 0.0199995 0.0200014 0.0200034 0.0200058 0.0200085 0.0200114 0.0200148 0.0200185 0.0200226 0.0200271 0.020032 0.0200374 0.0200432 0.0200496 0.0200564 0.0200638 0.0200718 0.0200803 0.0200893 0.020099 0.0201093 0.0201201 0.0201316 0.0201437 0.0201564 0.0201697 0.0201836 0.0201981 0.0202133 0.020229 0.0202453 0.0202622 0.0202796 0.0202975 0.0203159 0.0203347 0.020354 0.0203737 0.0203937 0.020414 0.0204347 0.0204556 0.0204769 0.0204983 0.0205201 0.0205419 0.020564 0.0205861 0.0206083 0.0206305 0.0206528 0.0206749 0.020697 0.0207189 0.0207407 0.0207622 0.0207834 0.0208043 0.0208248 0.0208449 0.0208644 0.0208835 0.0209019 0.0209196 0.0209367 0.0209529 0.0209682 0.0209827 0.0209961 0.0210085 0.0210198 0.0210299 0.0210387 0.0210463 0.0210525 0.0210573 0.0210607 0.0210626 0.0210631 0.021062 0.0210593 0.0210551 0.0210493 0.0210418 0.0210328 0.021022 0.0210096 0.0209956 0.02098 0.0209629 0.0209443 0.0209242 0.0209027 0.02088 0.0208561 0.0208311 0.020805 0.0207781 0.0207504 0.0207221 0.0206933 0.0206642 0.0206348 0.0206054 0.020576 0.0205468 0.020518 0.0204897 0.020462 0.0204351 0.020409 0.0203839 0.0203599 0.0203369 0.0203152 0.0202947 0.0202755 0.0202575 0.0202408 0.0202253 0.020211 0.0201979 0.0201857 0.0201746 0.0201642 0.0201546 0.0201455 0.0201369 0.0201285 0.0201202 0.0201117 0.0201029 0.0200933 0.0200826 0.0200699 0.0200545 0.0200354 0.0200119 0.0199837 0.0199506 0.0199127 0.0198698 0.0198218 0.0197682 0.0197084 0.0196419 0.0195681 0.0194861 0.019395 0.0192939 0.0191818 0.0190574 0.0189197 0.0187676 0.0186005 0.0184183 0.0182225 0.018016 0.017804 0.0175941 0.0173922 0.0171943 0.016981 0.0167333 0.0164429 0.0160929 0.0156829 0.0152178 0.0146992 0.0141296 0.0135046 0.0128287 0.0121069 0.011348 0.0105549 0.00972292 0.00884582 0.00789955 0.00687258 0.00576303 0.00457677 0.00331857 0.00199088 0.000584065 -0.000892757 -0.00246313 -0.004113 -0.00583207 -0.0076373 -0.00964165 -0.0117045 -0.0138747 -0.0162492 -0.0187118 -0.0214368 -0.0233764 -0.0282398 -0.0322918 -0.0392546 -0.0416953 0 0 0 0 0 0 0 0 0 0 0 0 0 0 0 0 0 0 0 0 0 0 0 0 0 0 0 0 0 0 0 0 0 0 0 0 0 0 0 0 0 0 0 0 0 0 0 0 0 0 0 0 0 0 0 0 0 0 0 0 0 0 0 0 0 0 0 0 0 0 0 0 0 0 0 0 0 0 0 0 0 0 0 0 0 0 0 0 0 0 0 0 0 0 0 0 0 0 0 0 0 0 0 0 0 0 0 0 0 0 0 0 0 0 0 0 0 0 0 0 0 0 0 0 0 0 0 0 0 0 0 0 0 0 0 0 0 0 0 0 0 0 0 0 0 0 0 0 0 0 0 0 0 0 0 0 0 0 0 0 0 0 0 0 0 0 0 0 0 0 0 0 0 0 0 0 0 0 0 0 0 0 0 0 0 0 0 0 0 0 0 0 0 0 0 0 0 0 0 0 0 0 0 0 0 0 0 0 0 0 0 0 0 0 0 0 0 0 0 0 0 0 0 0 0 0 0 0 0 0 0 0 0 0 0 0 0 0 0 0 0 0 0 0 0 0 0 0 0 0 0 0 0 0 0 0 0 0 -0.0369965 -0.0307896 -0.0220999 -0.0120734 -1.0842e-18 