# vtk DataFile Version 2.0
iteration 2565
ASCII

DATASET STRUCTURED_POINTS
DIMENSIONS 621 64 1
ORIGIN 0 0 0
SPACING 0.00161031 0.00161031 0.00161031

POINT_DATA 39744
SCALARS P float 1
LOOKUP_TABLE default
0 0 0 0 0 0 0 0 0 0 0 0 0 0 0 0 0 0 0 0 0 0 0 0 0 0 0 0 0 0 0 0 0 0 0 0 0 0 0 0 0 0 0 0 0 0 0 0 0 0 0 0 0 0 0 0 0 0 0 0 0 0 0 0 0 0 0 0 0 0 0 0 0 0 0 0 0 0 0 0 0 0 0 0 0 0 0 0 0 0 0 0 0 0 0 0 0 0 0 0 0 0 0 0 0 0 0 0 0 0 0 0 0 0 0 0 0 0 0 0 0 0 0 0 0 0 0 0 0 0 0 0 0 0 0 0 0 0 0 0 0 0 0 0 0 0 0 0 0 0 0 0 0 0 0 0 0 0 0 0 0 0 0 0 0 0 0 0 0 0 0 0 0 0 0 0 0 0 0 0 0 0 0 0 0 0 0 0 0 0 0 0 0 0 0 0 0 0 0 0 0 0 0 0 0 0 0 0 0 0 0 0 0 0 0 0 0 0 0 0 0 0 0 0 0 0 0 0 0 0 0 0 0 0 0 0 0 0 0 0 0 0 0 0 0 0 0 0 0 0 0 0 0 0 0 0 0 0 0 0 0 0 0 0 0 0 0 0 0 0 0 0 0 0 0 0 0 0 0 0 0 0 0 0 0 0 0 0 0 0 0 0 0 0 0 0 0 0 0 0 0 0 0 0 0 0 0 0 0 0 0 0 0 0 0 0 0 0 0 0 0 0 0 0 0 0 0 0 0 0 0 0 0 0 0 0 0 0 0 0 0 0 0 0 0 0 0 0 0 0 0 0 0 0 0 0 0 0 0 0 0 0 0 0 0 0 0 0 0 0 0 0 0 0 0 0 0 0 0 0 0 0 0 0 0 0 0 0 0 0 0 0 0 0 0 0 0 0 0 0 0 0 0 0 0 0 0 0 0 0 0 0 0 0 0 0 0 0 0 0 0 0 0 0 0 0 0 0 0 0 0 0 0 0 0 0 0 0 0 0 0 0 0 0 0 0 0 0 0 0 0 0 0 0 0 0 0 0 0 0 0 0 0 0 0 0 0 0 0 0 0 0 0 0 0 0 0 0 0 0 0 0 0 0 0 0 0 0 0 0 0 0 0 0 0 0 0 0 0 0 0 0 0 0 0 0 0 0 0 0 0 0 0 0 0 0 0 0 0 0 0 0 0 0 0 0 0 0 0 0 0 0 0 0 0 0 0 0 0 0 0 0 0 0 0 0 0 0 0 0 0 0 0 0 0 0 0 0 0 0 0 0 0 0 0 0 0 0 0 0 0 0 0 0 0 0 0 0 0 0 0 0 0 0 0 0 0 0 0 0 0 0 0 0 0 0 0 0 0 0 0 0 0 0 0 0 0 0 0 0 0 0 0 0 0 0 0 0 0 0 0 
0.0181928 0.018308 0.018257 0.0182818 0.0183096 0.0183403 0.0183731 0.0184074 0.0184432 0.0184802 0.0185185 0.018558 0.0185986 0.0186404 0.0186832 0.018727 0.0187718 0.0188175 0.0188642 0.0189117 0.01896 0.0190091 0.019059 0.0191095 0.0191607 0.0192126 0.0192649 0.0193178 0.0193712 0.0194249 0.0194791 0.0195335 0.0195881 0.019643 0.0196979 0.0197527 0.0198072 0.0198608 0.019912 0.0199571 0.0199923 0.020027 0.0200689 0.0201136 0.0201595 0.0202063 0.0202534 0.0203007 0.020348 0.0203954 0.0204425 0.0204895 0.0205361 0.0205824 0.0206282 0.0206735 0.0207183 0.0207625 0.0208061 0.020849 0.0208911 0.0209325 0.0209731 0.0210129 0.0210517 0.0210897 0.0211268 0.0211629 0.021198 0.0212321 0.0212652 0.0212972 0.0213282 0.021358 0.0213868 0.0214144 0.0214408 0.0214661 0.0214903 0.0215132 0.0215349 0.0215554 0.0215747 0.0215928 0.0216096 0.0216251 0.0216394 0.0216525 0.0216642 0.0216747 0.0216839 0.0216919 0.0216986 0.021704 0.0217082 0.0217111 0.0217127 0.0217131 0.0217123 0.0217103 0.021707 0.0217025 0.0216969 0.0216901 0.0216821 0.0216731 0.0216629 0.0216516 0.0216393 0.0216259 0.0216115 0.0215961 0.0215797 0.0215624 0.0215443 0.0215252 0.0215053 0.0214846 0.0214632 0.021441 0.0214181 0.0213945 0.0213704 0.0213456 0.0213203 0.0212945 0.0212682 0.0212415 0.0212144 0.021187 0.0211593 0.0211313 0.0211031 0.0210748 0.0210463 0.0210177 0.0209891 0.0209604 0.0209318 0.0209032 0.0208748 0.0208465 0.0208184 0.0207905 0.0207628 0.0207354 0.0207084 0.0206817 0.0206554 0.0206295 0.020604 0.0205789 0.0205544 0.0205303 0.0205068 0.0204838 0.0204614 0.0204396 0.0204183 0.0203976 0.0203776 0.0203581 0.0203393 0.0203211 0.0203035 0.0202866 0.0202703 0.0202546 0.0202395 0.0202251 0.0202113 0.020198 0.0201854 0.0201734 0.0201619 0.020151 0.0201406 0.0201308 0.0201216 0.0201128 0.0201045 0.0200967 0.0200893 0.0200824 0.0200759 0.0200699 0.0200642 0.0200589 0.020054 0.0200494 0.0200451 0.0200411 0.0200375 0.0200341 0.0200309 0.020028 0.0200254 0.0200229 0.0200207 0.0200186 0.0200168 0.020015 0.0200135 0.0200121 0.0200108 0.0200096 0.0200086 0.0200076 0.0200068 0.020006 0.0200053 0.0200047 0.0200041 0.0200036 0.0200032 0.0200028 0.0200024 0.0200021 0.0200019 0.0200016 0.0200014 0.0200012 0.0200011 0.0200009 0.0200008 0.0200007 0.0200006 0.0200005 0.0200004 0.0200004 0.0200003 0.0200003 0.0200002 0.0200002 0.0200002 0.0200002 0.0200002 0.0200001 0.0200001 0.0200001 0.0200001 0.0200001 0.0200001 0.0200001 0.0200001 0.0200001 0.0200001 0.0200001 0.0200001 0.0200001 0.0200001 0.0200001 0.0200001 0.0200001 0.0200001 0.0200001 0.0200001 0.0200002 0.0200002 0.0200002 0.0200002 0.0200002 0.0200002 0.0200002 0.0200002 0.0200002 0.0200002 0.0200002 0.0200002 0.0200002 0.0200002 0.0200002 0.0200002 0.0200002 0.0200002 0.0200002 0.0200002 0.0200002 0.0200002 0.0200002 0.0200001 0.0200001 0.0200001 0.02 0.02 0.02 0.0199999 0.0199999 0.0199998 0.0199997 0.0199997 0.0199996 0.0199995 0.0199994 0.0199993 0.0199991 0.019999 0.0199988 0.0199987 0.0199985 0.0199983 0.0199981 0.0199979 0.0199976 0.0199974 0.0199971 0.0199968 0.0199964 0.0199961 0.0199957 0.0199953 0.0199949 0.0199944 0.019994 0.0199934 0.0199929 0.0199923 0.0199917 0.0199911 0.0199904 0.0199897 0.0199889 0.0199881 0.0199873 0.0199864 0.0199855 0.0199845 0.0199835 0.0199825 0.0199814 0.0199802 0.019979 0.0199778 0.0199765 0.0199751 0.0199737 0.0199723 0.0199708 0.0199692 0.0199676 0.0199659 0.0199642 0.0199625 0.0199606 0.0199587 0.0199568 0.0199548 0.0199528 0.0199507 0.0199485 0.0199463 0.0199441 0.0199417 0.0199394 0.019937 0.0199345 0.019932 0.0199294 0.0199268 0.0199242 0.0199215 0.0199188 0.019916 0.0199132 0.0199103 0.0199075 0.0199045 0.0199016 0.0198986 0.0198956 0.0198926 0.0198895 0.0198864 0.0198833 0.0198802 0.0198771 0.0198739 0.0198707 0.0198676 0.0198644 0.0198612 0.019858 0.0198548 0.0198516 0.0198484 0.0198452 0.019842 0.0198388 0.0198356 0.0198324 0.0198292 0.019826 0.0198229 0.0198197 0.0198165 0.0198134 0.0198102 0.0198071 0.019804 0.0198008 0.0197977 0.0197945 0.0197914 0.0197883 0.0197851 0.019782 0.0197788 0.0197756 0.0197725 0.0197693 0.019766 0.0197628 0.0197595 0.0197562 0.0197529 0.0197495 0.0197461 0.0197427 0.0197392 0.0197356 0.019732 0.0197283 0.0197246 0.0197208 0.0197169 0.019713 0.0197089 0.0197048 0.0197006 0.0196964 0.019692 0.0196875 0.019683 0.0196783 0.0196735 0.0196686 0.0196637 0.0196586 0.0196533 0.019648 0.0196426 0.019637 0.0196313 0.0196257 0.0196199 0.019614 0.0196082 0.0196023 0.0195963 0.0195902 0.0195841 0.0195779 0.0195716 0.0195653 0.0195589 0.0195524 0.019546 0.0195395 0.0195329 0.0195264 0.0195198 0.0195133 0.0195067 0.0195001 0.0194936 0.019487 0.0194805 0.0194741 0.0194676 0.0194613 0.019455 0.0194488 0.0194426 0.0194366 0.0194306 0.0194247 0.019419 0.0194134 0.0194079 0.0194026 0.0193974 0.0193924 0.0193876 0.019383 0.0193785 0.0193742 0.0193702 0.0193664 0.0193628 0.0193595 0.0193564 0.0193536 0.019351 0.0193488 0.0193468 0.0193451 0.0193438 0.0193428 0.0193421 0.0193418 0.0193418 0.0193422 0.019343 0.0193442 0.0193458 0.0193478 0.0193502 0.019353 0.0193562 0.0193599 0.019364 0.0193686 0.0193737 0.0193792 0.0193852 0.0193916 0.0193985 0.0194059 0.0194138 0.0194222 0.019431 0.0194403 0.0194501 0.0194604 0.0194711 0.0194823 0.0194939 0.019506 0.0195185 0.0195315 0.0195448 0.0195585 0.0195726 0.019587 0.0196017 0.0196166 0.0196318 0.0196472 0.0196628 0.0196785 0.0196942 0.0197099 0.0197256 0.0197411 0.0197565 0.0197716 0.0197863 0.0198006 0.0198144 0.0198276 0.0198401 0.0198518 0.0198626 0.0198724 0.0198811 0.0198887 0.0198949 0.0198998 0.0199032 0.0199052 0.0199055 0.0199043 0.0199013 0.0198967 0.0198904 0.0198825 0.019873 0.0198619 0.0198494 0.0198356 0.0198207 0.019805 0.0197885 0.0197718 0.019755 0.0197386 0.0197231 0.0197091 0.019697 0.0196878 0.0196823 0.0196816 0.0196868 0.0196996 0.0197217 0.0197548 0.0198013 0.0198619 0.0199285 0.0200036 0.0201099 0.0202464 0.0204121 0.0206078 0.0208351 0.0210953 0.021389 0.0217158 0.0220732 0.0224574 0.0228526 0.0232197 0.024065 0.0281229 0 0 0 0 0 0 0 0 0 0 0 0 0 0 0 0 0 
0.0181928 0.0182525 0.0182594 0.0182831 0.0183107 0.0183412 0.0183737 0.0184079 0.0184436 0.0184806 0.0185188 0.0185583 0.0185989 0.0186407 0.0186835 0.0187273 0.0187721 0.0188178 0.0188645 0.018912 0.0189603 0.0190094 0.0190592 0.0191097 0.0191609 0.0192127 0.0192651 0.0193179 0.0193712 0.019425 0.0194791 0.0195334 0.0195881 0.0196428 0.0196976 0.0197521 0.019806 0.0198581 0.0199074 0.0199523 0.019992 0.0200323 0.020075 0.0201197 0.0201656 0.0202122 0.0202592 0.0203065 0.0203538 0.020401 0.0204481 0.0204949 0.0205415 0.0205877 0.0206334 0.0206786 0.0207233 0.0207674 0.0208109 0.0208537 0.0208957 0.020937 0.0209775 0.0210171 0.0210559 0.0210937 0.0211307 0.0211667 0.0212017 0.0212356 0.0212686 0.0213005 0.0213313 0.0213611 0.0213897 0.0214172 0.0214435 0.0214687 0.0214927 0.0215155 0.0215371 0.0215575 0.0215766 0.0215946 0.0216112 0.0216267 0.0216408 0.0216537 0.0216654 0.0216757 0.0216848 0.0216927 0.0216992 0.0217045 0.0217086 0.0217113 0.0217129 0.0217131 0.0217122 0.02171 0.0217067 0.0217021 0.0216963 0.0216894 0.0216813 0.0216721 0.0216618 0.0216505 0.021638 0.0216245 0.02161 0.0215945 0.0215781 0.0215607 0.0215424 0.0215233 0.0215033 0.0214825 0.0214609 0.0214387 0.0214157 0.0213921 0.0213678 0.021343 0.0213176 0.0212917 0.0212654 0.0212387 0.0212115 0.0211841 0.0211563 0.0211283 0.0211001 0.0210717 0.0210431 0.0210145 0.0209859 0.0209572 0.0209286 0.0209 0.0208716 0.0208433 0.0208152 0.0207873 0.0207597 0.0207323 0.0207053 0.0206786 0.0206523 0.0206264 0.020601 0.020576 0.0205515 0.0205275 0.0205041 0.0204811 0.0204588 0.020437 0.0204158 0.0203952 0.0203752 0.0203558 0.0203371 0.0203189 0.0203014 0.0202846 0.0202683 0.0202527 0.0202377 0.0202234 0.0202096 0.0201965 0.0201839 0.0201719 0.0201606 0.0201497 0.0201394 0.0201297 0.0201205 0.0201118 0.0201035 0.0200958 0.0200885 0.0200816 0.0200752 0.0200692 0.0200636 0.0200583 0.0200534 0.0200488 0.0200446 0.0200407 0.020037 0.0200337 0.0200306 0.0200277 0.0200251 0.0200227 0.0200204 0.0200184 0.0200166 0.0200149 0.0200133 0.0200119 0.0200106 0.0200095 0.0200084 0.0200075 0.0200067 0.0200059 0.0200052 0.0200046 0.0200041 0.0200036 0.0200031 0.0200027 0.0200024 0.0200021 0.0200018 0.0200016 0.0200014 0.0200012 0.020001 0.0200009 0.0200008 0.0200007 0.0200006 0.0200005 0.0200004 0.0200004 0.0200003 0.0200003 0.0200002 0.0200002 0.0200002 0.0200002 0.0200001 0.0200001 0.0200001 0.0200001 0.0200001 0.0200001 0.0200001 0.0200001 0.0200001 0.0200001 0.0200001 0.0200001 0.0200001 0.0200001 0.0200001 0.0200001 0.0200001 0.0200001 0.0200001 0.0200001 0.0200001 0.0200001 0.0200002 0.0200002 0.0200002 0.0200002 0.0200002 0.0200002 0.0200002 0.0200002 0.0200002 0.0200002 0.0200002 0.0200002 0.0200002 0.0200002 0.0200002 0.0200002 0.0200002 0.0200002 0.0200002 0.0200002 0.0200002 0.0200002 0.0200001 0.0200001 0.0200001 0.0200001 0.02 0.02 0.0199999 0.0199999 0.0199998 0.0199997 0.0199997 0.0199996 0.0199995 0.0199994 0.0199993 0.0199991 0.019999 0.0199989 0.0199987 0.0199985 0.0199983 0.0199981 0.0199979 0.0199976 0.0199974 0.0199971 0.0199968 0.0199965 0.0199961 0.0199958 0.0199954 0.0199949 0.0199945 0.019994 0.0199935 0.0199929 0.0199924 0.0199918 0.0199911 0.0199905 0.0199897 0.019989 0.0199882 0.0199874 0.0199865 0.0199856 0.0199846 0.0199836 0.0199826 0.0199815 0.0199803 0.0199791 0.0199779 0.0199766 0.0199752 0.0199739 0.0199724 0.0199709 0.0199694 0.0199678 0.0199661 0.0199644 0.0199626 0.0199608 0.0199589 0.019957 0.019955 0.019953 0.0199509 0.0199487 0.0199465 0.0199443 0.019942 0.0199396 0.0199372 0.0199347 0.0199322 0.0199297 0.0199271 0.0199244 0.0199217 0.019919 0.0199162 0.0199134 0.0199106 0.0199077 0.0199048 0.0199018 0.0198989 0.0198959 0.0198928 0.0198898 0.0198867 0.0198836 0.0198805 0.0198773 0.0198742 0.019871 0.0198678 0.0198646 0.0198614 0.0198582 0.019855 0.0198518 0.0198486 0.0198454 0.0198422 0.019839 0.0198358 0.0198326 0.0198294 0.0198262 0.019823 0.0198199 0.0198167 0.0198135 0.0198104 0.0198072 0.0198041 0.0198009 0.0197978 0.0197946 0.0197915 0.0197883 0.0197852 0.019782 0.0197788 0.0197757 0.0197725 0.0197692 0.019766 0.0197628 0.0197595 0.0197562 0.0197528 0.0197495 0.019746 0.0197426 0.0197391 0.0197355 0.0197319 0.0197282 0.0197245 0.0197207 0.0197168 0.0197128 0.0197088 0.0197047 0.0197005 0.0196962 0.0196919 0.0196874 0.0196828 0.0196782 0.0196734 0.0196685 0.0196635 0.0196585 0.0196533 0.0196481 0.0196427 0.0196373 0.0196317 0.0196262 0.0196206 0.0196149 0.0196091 0.0196032 0.0195973 0.0195913 0.0195852 0.0195791 0.0195729 0.0195666 0.0195603 0.0195539 0.0195475 0.0195411 0.0195346 0.0195282 0.0195217 0.0195151 0.0195086 0.0195021 0.0194956 0.0194892 0.0194827 0.0194763 0.01947 0.0194637 0.0194574 0.0194512 0.0194451 0.0194391 0.0194332 0.0194274 0.0194217 0.0194161 0.0194107 0.0194054 0.0194002 0.0193953 0.0193904 0.0193858 0.0193814 0.0193771 0.0193731 0.0193693 0.0193657 0.0193623 0.0193592 0.0193564 0.0193538 0.0193515 0.0193495 0.0193478 0.0193465 0.0193454 0.0193447 0.0193443 0.0193443 0.0193446 0.0193454 0.0193465 0.019348 0.0193499 0.0193522 0.0193549 0.0193581 0.0193617 0.0193658 0.0193703 0.0193752 0.0193806 0.0193865 0.0193929 0.0193997 0.019407 0.0194148 0.0194231 0.0194318 0.019441 0.0194507 0.0194609 0.0194716 0.0194827 0.0194943 0.0195063 0.0195187 0.0195316 0.0195449 0.0195585 0.0195725 0.0195869 0.0196015 0.0196164 0.0196316 0.019647 0.0196625 0.0196781 0.0196938 0.0197095 0.0197252 0.0197407 0.0197561 0.0197711 0.0197859 0.0198002 0.019814 0.0198273 0.0198398 0.0198515 0.0198623 0.0198722 0.019881 0.0198886 0.0198949 0.0198999 0.0199035 0.0199055 0.019906 0.0199049 0.0199021 0.0198977 0.0198916 0.0198839 0.0198746 0.0198638 0.0198515 0.019838 0.0198233 0.0198078 0.0197915 0.0197749 0.0197583 0.019742 0.0197264 0.0197122 0.0196999 0.0196901 0.0196839 0.0196822 0.0196861 0.0196972 0.019717 0.0197473 0.01979 0.0198452 0.0199106 0.0199891 0.0200929 0.0202242 0.0203842 0.020574 0.0207953 0.0210493 0.0213369 0.0216578 0.0220106 0.0223958 0.0228243 0.023231 0.0238563 0.0250661 0.0254561 0.0255073 0.0257608 0.0260334 0.0262569 0.0262544 0.0258525 0.0253737 0.0247577 0.0239988 0.0236141 0.0231149 0.0253713 0 0 0 0 
0.0181928 0.0182349 0.0182578 0.0182835 0.0183117 0.0183421 0.0183746 0.0184087 0.0184443 0.0184813 0.0185195 0.018559 0.0185997 0.0186414 0.0186842 0.0187281 0.0187729 0.0188187 0.0188653 0.0189129 0.0189612 0.0190103 0.0190601 0.0191107 0.0191618 0.0192136 0.0192659 0.0193188 0.0193721 0.0194257 0.0194798 0.0195341 0.0195886 0.0196432 0.0196977 0.0197516 0.0198042 0.0198548 0.0199024 0.0199471 0.0199896 0.0200324 0.0200764 0.0201216 0.0201676 0.0202143 0.0202614 0.0203086 0.0203559 0.0204031 0.0204502 0.0204971 0.0205436 0.0205897 0.0206355 0.0206807 0.0207254 0.0207695 0.0208129 0.0208556 0.0208977 0.0209389 0.0209793 0.021019 0.0210577 0.0210955 0.0211324 0.0211684 0.0212033 0.0212373 0.0212702 0.021302 0.0213328 0.0213625 0.0213911 0.0214186 0.0214448 0.02147 0.0214939 0.0215167 0.0215382 0.0215586 0.0215777 0.0215956 0.0216122 0.0216276 0.0216417 0.0216545 0.0216661 0.0216765 0.0216855 0.0216933 0.0216998 0.021705 0.021709 0.0217118 0.0217132 0.0217135 0.0217125 0.0217103 0.0217068 0.0217022 0.0216964 0.0216894 0.0216813 0.0216721 0.0216617 0.0216503 0.0216378 0.0216243 0.0216097 0.0215942 0.0215777 0.0215603 0.0215419 0.0215227 0.0215027 0.0214819 0.0214603 0.021438 0.021415 0.0213913 0.021367 0.0213422 0.0213168 0.0212909 0.0212645 0.0212377 0.0212106 0.0211831 0.0211553 0.0211272 0.021099 0.0210706 0.021042 0.0210134 0.0209847 0.020956 0.0209274 0.0208988 0.0208704 0.0208421 0.020814 0.0207861 0.0207584 0.0207311 0.0207041 0.0206774 0.0206511 0.0206252 0.0205998 0.0205748 0.0205503 0.0205264 0.0205029 0.02048 0.0204577 0.0204359 0.0204147 0.0203941 0.0203742 0.0203548 0.0203361 0.020318 0.0203005 0.0202837 0.0202675 0.0202519 0.0202369 0.0202226 0.0202089 0.0201957 0.0201832 0.0201713 0.0201599 0.0201491 0.0201389 0.0201291 0.0201199 0.0201112 0.020103 0.0200953 0.0200881 0.0200812 0.0200748 0.0200688 0.0200632 0.020058 0.0200531 0.0200486 0.0200444 0.0200404 0.0200368 0.0200335 0.0200304 0.0200275 0.0200249 0.0200225 0.0200203 0.0200183 0.0200164 0.0200148 0.0200132 0.0200118 0.0200106 0.0200094 0.0200084 0.0200075 0.0200066 0.0200059 0.0200052 0.0200046 0.020004 0.0200035 0.0200031 0.0200027 0.0200024 0.0200021 0.0200018 0.0200016 0.0200014 0.0200012 0.020001 0.0200009 0.0200008 0.0200007 0.0200006 0.0200005 0.0200004 0.0200004 0.0200003 0.0200003 0.0200002 0.0200002 0.0200002 0.0200002 0.0200001 0.0200001 0.0200001 0.0200001 0.0200001 0.0200001 0.0200001 0.0200001 0.0200001 0.0200001 0.0200001 0.0200001 0.0200001 0.0200001 0.0200001 0.0200001 0.0200001 0.0200001 0.0200001 0.0200001 0.0200001 0.0200001 0.0200002 0.0200002 0.0200002 0.0200002 0.0200002 0.0200002 0.0200002 0.0200002 0.0200002 0.0200002 0.0200002 0.0200002 0.0200002 0.0200002 0.0200002 0.0200002 0.0200002 0.0200002 0.0200002 0.0200002 0.0200002 0.0200002 0.0200001 0.0200001 0.0200001 0.0200001 0.02 0.02 0.0199999 0.0199999 0.0199998 0.0199997 0.0199997 0.0199996 0.0199995 0.0199994 0.0199993 0.0199992 0.019999 0.0199989 0.0199987 0.0199985 0.0199983 0.0199981 0.0199979 0.0199977 0.0199974 0.0199971 0.0199968 0.0199965 0.0199962 0.0199958 0.0199954 0.019995 0.0199945 0.019994 0.0199935 0.019993 0.0199924 0.0199918 0.0199912 0.0199905 0.0199898 0.0199891 0.0199883 0.0199875 0.0199866 0.0199857 0.0199847 0.0199837 0.0199827 0.0199816 0.0199805 0.0199793 0.019978 0.0199767 0.0199754 0.019974 0.0199726 0.0199711 0.0199695 0.0199679 0.0199663 0.0199646 0.0199628 0.019961 0.0199591 0.0199572 0.0199552 0.0199532 0.0199511 0.019949 0.0199468 0.0199445 0.0199422 0.0199399 0.0199375 0.019935 0.0199325 0.01993 0.0199274 0.0199248 0.0199221 0.0199193 0.0199166 0.0199138 0.0199109 0.019908 0.0199051 0.0199022 0.0198992 0.0198962 0.0198932 0.0198901 0.019887 0.0198839 0.0198808 0.0198777 0.0198745 0.0198714 0.0198682 0.019865 0.0198618 0.0198586 0.0198554 0.0198522 0.0198489 0.0198457 0.0198425 0.0198393 0.0198361 0.0198329 0.0198297 0.0198265 0.0198233 0.0198201 0.0198169 0.0198137 0.0198106 0.0198074 0.0198042 0.0198011 0.0197979 0.0197948 0.0197916 0.0197884 0.0197853 0.0197821 0.0197789 0.0197757 0.0197725 0.0197693 0.0197661 0.0197628 0.0197595 0.0197562 0.0197528 0.0197494 0.019746 0.0197425 0.019739 0.0197355 0.0197318 0.0197282 0.0197244 0.0197206 0.0197167 0.0197128 0.0197088 0.0197046 0.0197005 0.0196962 0.0196918 0.0196874 0.0196829 0.0196782 0.0196735 0.0196687 0.0196638 0.0196589 0.0196538 0.0196486 0.0196434 0.0196382 0.0196328 0.0196274 0.0196219 0.0196163 0.0196106 0.0196049 0.019599 0.0195931 0.0195872 0.0195812 0.0195751 0.0195689 0.0195627 0.0195565 0.0195502 0.0195439 0.0195376 0.0195312 0.0195248 0.0195184 0.0195121 0.0195057 0.0194993 0.0194929 0.0194866 0.0194803 0.0194741 0.0194679 0.0194617 0.0194557 0.0194497 0.0194438 0.0194379 0.0194322 0.0194266 0.0194211 0.0194157 0.0194105 0.0194054 0.0194005 0.0193957 0.0193912 0.0193867 0.0193825 0.0193785 0.0193747 0.0193712 0.0193678 0.0193647 0.0193619 0.0193593 0.019357 0.019355 0.0193533 0.0193519 0.0193508 0.0193501 0.0193496 0.0193496 0.0193498 0.0193505 0.0193515 0.019353 0.0193548 0.019357 0.0193597 0.0193628 0.0193663 0.0193702 0.0193746 0.0193794 0.0193848 0.0193905 0.0193968 0.0194035 0.0194107 0.0194183 0.0194265 0.0194351 0.0194442 0.0194538 0.0194639 0.0194744 0.0194854 0.0194969 0.0195088 0.0195211 0.0195339 0.019547 0.0195606 0.0195745 0.0195888 0.0196033 0.0196182 0.0196333 0.0196485 0.019664 0.0196796 0.0196952 0.0197109 0.0197264 0.0197419 0.0197572 0.0197723 0.019787 0.0198013 0.0198151 0.0198282 0.0198407 0.0198524 0.0198633 0.0198731 0.0198819 0.0198895 0.0198958 0.0199008 0.0199044 0.0199065 0.0199071 0.019906 0.0199033 0.019899 0.019893 0.0198854 0.0198762 0.0198655 0.0198535 0.0198401 0.0198257 0.0198103 0.0197943 0.0197779 0.0197614 0.0197452 0.0197298 0.0197155 0.0197031 0.0196931 0.0196864 0.019684 0.0196869 0.0196966 0.0197147 0.0197426 0.0197819 0.0198331 0.019896 0.0199733 0.0200727 0.0201979 0.0203509 0.0205333 0.0207469 0.0209928 0.0212721 0.0215852 0.0219333 0.0223258 0.0227848 0.0232975 0.0238276 0.0245236 0.0249906 0.0252641 0.0255496 0.0257912 0.0259513 0.025923 0.0256581 0.025263 0.0246969 0.0240554 0.0234833 0.0220186 0.0215031 0.0189279 0.0147374 0.00868775 -2.1684e-18 
0.0181928 0.0182283 0.0182561 0.0182836 0.0183124 0.0183431 0.0183755 0.0184096 0.0184452 0.0184822 0.0185204 0.0185599 0.0186006 0.0186424 0.0186853 0.0187292 0.018774 0.0188198 0.0188665 0.018914 0.0189624 0.0190115 0.0190614 0.0191119 0.019163 0.0192148 0.0192671 0.0193199 0.0193731 0.0194268 0.0194808 0.019535 0.0195894 0.0196436 0.0196975 0.0197505 0.019802 0.0198513 0.0198981 0.0199431 0.0199872 0.0200315 0.0200764 0.0201221 0.0201684 0.0202152 0.0202624 0.0203097 0.020357 0.0204043 0.0204514 0.0204982 0.0205448 0.020591 0.0206367 0.0206819 0.0207266 0.0207707 0.0208141 0.0208568 0.0208989 0.0209401 0.0209805 0.0210201 0.0210589 0.0210967 0.0211336 0.0211695 0.0212044 0.0212384 0.0212713 0.0213031 0.0213339 0.0213635 0.0213921 0.0214195 0.0214458 0.0214709 0.0214948 0.0215176 0.0215391 0.0215594 0.0215785 0.0215963 0.0216129 0.0216283 0.0216424 0.0216552 0.0216668 0.0216771 0.0216861 0.0216938 0.0217003 0.0217055 0.0217095 0.0217122 0.0217136 0.0217138 0.0217128 0.0217106 0.0217071 0.0217025 0.0216966 0.0216896 0.0216815 0.0216722 0.0216619 0.0216504 0.0216379 0.0216243 0.0216097 0.0215942 0.0215776 0.0215602 0.0215418 0.0215226 0.0215026 0.0214817 0.0214601 0.0214378 0.0214147 0.021391 0.0213667 0.0213418 0.0213164 0.0212905 0.0212641 0.0212373 0.0212101 0.0211826 0.0211548 0.0211267 0.0210984 0.02107 0.0210414 0.0210128 0.0209841 0.0209554 0.0209268 0.0208982 0.0208697 0.0208414 0.0208133 0.0207854 0.0207577 0.0207304 0.0207033 0.0206767 0.0206504 0.0206245 0.0205991 0.0205741 0.0205496 0.0205256 0.0205022 0.0204793 0.020457 0.0204352 0.020414 0.0203935 0.0203735 0.0203542 0.0203354 0.0203174 0.0202999 0.0202831 0.0202669 0.0202513 0.0202364 0.0202221 0.0202083 0.0201952 0.0201827 0.0201708 0.0201595 0.0201487 0.0201384 0.0201287 0.0201196 0.0201109 0.0201027 0.020095 0.0200877 0.0200809 0.0200745 0.0200686 0.020063 0.0200578 0.0200529 0.0200484 0.0200442 0.0200403 0.0200367 0.0200333 0.0200302 0.0200274 0.0200248 0.0200224 0.0200202 0.0200182 0.0200163 0.0200147 0.0200131 0.0200118 0.0200105 0.0200094 0.0200083 0.0200074 0.0200066 0.0200058 0.0200051 0.0200045 0.020004 0.0200035 0.0200031 0.0200027 0.0200024 0.0200021 0.0200018 0.0200016 0.0200014 0.0200012 0.020001 0.0200009 0.0200008 0.0200007 0.0200006 0.0200005 0.0200004 0.0200004 0.0200003 0.0200003 0.0200002 0.0200002 0.0200002 0.0200002 0.0200001 0.0200001 0.0200001 0.0200001 0.0200001 0.0200001 0.0200001 0.0200001 0.0200001 0.0200001 0.0200001 0.0200001 0.0200001 0.0200001 0.0200001 0.0200001 0.0200001 0.0200001 0.0200001 0.0200001 0.0200001 0.0200001 0.0200002 0.0200002 0.0200002 0.0200002 0.0200002 0.0200002 0.0200002 0.0200002 0.0200002 0.0200002 0.0200002 0.0200002 0.0200002 0.0200002 0.0200002 0.0200002 0.0200002 0.0200002 0.0200002 0.0200002 0.0200002 0.0200002 0.0200001 0.0200001 0.0200001 0.0200001 0.02 0.02 0.0199999 0.0199999 0.0199998 0.0199998 0.0199997 0.0199996 0.0199995 0.0199994 0.0199993 0.0199992 0.019999 0.0199989 0.0199987 0.0199986 0.0199984 0.0199982 0.0199979 0.0199977 0.0199974 0.0199972 0.0199969 0.0199965 0.0199962 0.0199958 0.0199954 0.019995 0.0199946 0.0199941 0.0199936 0.0199931 0.0199925 0.0199919 0.0199913 0.0199906 0.0199899 0.0199892 0.0199884 0.0199876 0.0199867 0.0199858 0.0199849 0.0199839 0.0199829 0.0199818 0.0199806 0.0199794 0.0199782 0.0199769 0.0199756 0.0199742 0.0199728 0.0199713 0.0199698 0.0199682 0.0199666 0.0199649 0.0199631 0.0199613 0.0199594 0.0199575 0.0199556 0.0199535 0.0199515 0.0199493 0.0199471 0.0199449 0.0199426 0.0199403 0.0199379 0.0199354 0.019933 0.0199304 0.0199278 0.0199252 0.0199225 0.0199198 0.0199171 0.0199143 0.0199114 0.0199086 0.0199056 0.0199027 0.0198997 0.0198967 0.0198937 0.0198907 0.0198876 0.0198845 0.0198814 0.0198782 0.0198751 0.0198719 0.0198687 0.0198655 0.0198623 0.0198591 0.0198559 0.0198527 0.0198495 0.0198463 0.0198431 0.0198398 0.0198366 0.0198334 0.0198302 0.019827 0.0198238 0.0198206 0.0198174 0.0198142 0.019811 0.0198078 0.0198047 0.0198015 0.0197983 0.0197952 0.019792 0.0197888 0.0197856 0.0197824 0.0197792 0.019776 0.0197728 0.0197696 0.0197663 0.019763 0.0197597 0.0197564 0.0197531 0.0197497 0.0197462 0.0197427 0.0197392 0.0197357 0.019732 0.0197283 0.0197246 0.0197208 0.019717 0.019713 0.019709 0.0197049 0.0197008 0.0196966 0.0196923 0.0196879 0.0196835 0.0196789 0.0196743 0.0196697 0.0196649 0.0196601 0.0196552 0.0196502 0.0196451 0.01964 0.0196348 0.0196295 0.0196241 0.0196187 0.0196132 0.0196076 0.0196019 0.0195961 0.0195903 0.0195845 0.0195786 0.0195726 0.0195666 0.0195605 0.0195544 0.0195483 0.0195421 0.0195359 0.0195297 0.0195235 0.0195173 0.0195111 0.0195049 0.0194987 0.0194925 0.0194864 0.0194803 0.0194742 0.0194682 0.0194623 0.0194565 0.0194507 0.019445 0.0194394 0.0194339 0.0194285 0.0194233 0.0194181 0.0194132 0.0194083 0.0194036 0.0193991 0.0193948 0.0193906 0.0193867 0.0193829 0.0193794 0.0193761 0.019373 0.0193702 0.0193676 0.0193653 0.0193633 0.0193615 0.0193601 0.019359 0.0193582 0.0193577 0.0193576 0.0193578 0.0193584 0.0193593 0.0193607 0.0193624 0.0193645 0.0193671 0.01937 0.0193734 0.0193772 0.0193815 0.0193862 0.0193914 0.019397 0.0194031 0.0194096 0.0194167 0.0194242 0.0194322 0.0194407 0.0194496 0.019459 0.0194689 0.0194793 0.0194902 0.0195015 0.0195132 0.0195254 0.019538 0.0195511 0.0195645 0.0195783 0.0195924 0.0196068 0.0196215 0.0196365 0.0196517 0.019667 0.0196825 0.019698 0.0197136 0.0197291 0.0197445 0.0197597 0.0197747 0.0197893 0.0198036 0.0198173 0.0198304 0.0198429 0.0198545 0.0198653 0.0198751 0.0198839 0.0198915 0.0198978 0.0199028 0.0199064 0.0199085 0.0199091 0.0199081 0.0199055 0.0199013 0.0198954 0.019888 0.019879 0.0198685 0.0198566 0.0198435 0.0198293 0.0198142 0.0197985 0.0197823 0.0197661 0.0197501 0.0197347 0.0197205 0.0197079 0.0196977 0.0196904 0.0196872 0.019689 0.0196971 0.019713 0.0197381 0.0197737 0.0198204 0.0198794 0.0199533 0.020047 0.0201646 0.0203088 0.0204816 0.0206847 0.0209196 0.0211874 0.0214897 0.0218311 0.0222259 0.0226935 0.0232248 0.0237561 0.0242433 0.0246647 0.0250132 0.0253188 0.0255587 0.0256881 0.0256558 0.0254574 0.0251335 0.0246601 0.0240495 0.0234945 0.0226425 0.0208527 0.0182526 0.01433 0.0084861 5.42101e-19 