# vtk DataFile Version 2.0
iteration 2214
ASCII

DATASET STRUCTURED_POINTS
DIMENSIONS 621 64 1
ORIGIN 0 0 0
SPACING 0.00161031 0.00161031 0.00161031

POINT_DATA 39744
SCALARS P float 1
LOOKUP_TABLE default
0 0 0 0 0 0 0 0 0 0 0 0 0 0 0 0 0 0 0 0 0 0 0 0 0 0 0 0 0 0 0 0 0 0 0 0 0 0 0 0 0 0 0 0 0 0 0 0 0 0 0 0 0 0 0 0 0 0 0 0 0 0 0 0 0 0 0 0 0 0 0 0 0 0 0 0 0 0 0 0 0 0 0 0 0 0 0 0 0 0 0 0 0 0 0 0 0 0 0 0 0 0 0 0 0 0 0 0 0 0 0 0 0 0 0 0 0 0 0 0 0 0 0 0 0 0 0 0 0 0 0 0 0 0 0 0 0 0 0 0 0 0 0 0 0 0 0 0 0 0 0 0 0 0 0 0 0 0 0 0 0 0 0 0 0 0 0 0 0 0 0 0 0 0 0 0 0 0 0 0 0 0 0 0 0 0 0 0 0 0 0 0 0 0 0 0 0 0 0 0 0 0 0 0 0 0 0 0 0 0 0 0 0 0 0 0 0 0 0 0 0 0 0 0 0 0 0 0 0 0 0 0 0 0 0 0 0 0 0 0 0 0 0 0 0 0 0 0 0 0 0 0 0 0 0 0 0 0 0 0 0 0 0 0 0 0 0 0 0 0 0 0 0 0 0 0 0 0 0 0 0 0 0 0 0 0 0 0 0 0 0 0 0 0 0 0 0 0 0 0 0 0 0 0 0 0 0 0 0 0 0 0 0 0 0 0 0 0 0 0 0 0 0 0 0 0 0 0 0 0 0 0 0 0 0 0 0 0 0 0 0 0 0 0 0 0 0 0 0 0 0 0 0 0 0 0 0 0 0 0 0 0 0 0 0 0 0 0 0 0 0 0 0 0 0 0 0 0 0 0 0 0 0 0 0 0 0 0 0 0 0 0 0 0 0 0 0 0 0 0 0 0 0 0 0 0 0 0 0 0 0 0 0 0 0 0 0 0 0 0 0 0 0 0 0 0 0 0 0 0 0 0 0 0 0 0 0 0 0 0 0 0 0 0 0 0 0 0 0 0 0 0 0 0 0 0 0 0 0 0 0 0 0 0 0 0 0 0 0 0 0 0 0 0 0 0 0 0 0 0 0 0 0 0 0 0 0 0 0 0 0 0 0 0 0 0 0 0 0 0 0 0 0 0 0 0 0 0 0 0 0 0 0 0 0 0 0 0 0 0 0 0 0 0 0 0 0 0 0 0 0 0 0 0 0 0 0 0 0 0 0 0 0 0 0 0 0 0 0 0 0 0 0 0 0 0 0 0 0 0 0 0 0 0 0 0 0 0 0 0 0 0 0 0 0 0 0 0 0 0 0 0 0 0 0 0 0 0 0 0 0 0 0 0 0 0 0 0 0 0 0 0 0 0 0 0 0 0 0 0 0 0 0 0 0 0 0 0 0 0 0 
0.0213163 0.0213036 0.0212525 0.0212054 0.0211594 0.0211135 0.0210674 0.0210211 0.0209746 0.0209281 0.0208815 0.0208351 0.0207889 0.0207431 0.0206978 0.020653 0.020609 0.0205658 0.0205237 0.0204826 0.0204428 0.0204044 0.0203675 0.0203322 0.0202987 0.020267 0.0202372 0.0202093 0.0201835 0.0201597 0.020138 0.0201183 0.0201005 0.0200847 0.0200707 0.0200584 0.0200478 0.0200387 0.0200309 0.0200244 0.0200191 0.0200147 0.0200111 0.0200083 0.0200061 0.0200044 0.0200031 0.0200022 0.0200015 0.020001 0.0200006 0.0200004 0.0200002 0.0200001 0.0200001 0.02 0.02 0.02 0.02 0.02 0.02 0.02 0.02 0.02 0.02 0.02 0.02 0.02 0.02 0.02 0.02 0.02 0.02 0.02 0.02 0.02 0.02 0.02 0.02 0.02 0.02 0.02 0.02 0.02 0.02 0.02 0.02 0.02 0.02 0.02 0.02 0.02 0.02 0.02 0.02 0.02 0.02 0.02 0.02 0.02 0.02 0.02 0.02 0.02 0.02 0.02 0.02 0.02 0.02 0.02 0.02 0.02 0.02 0.02 0.02 0.02 0.02 0.02 0.02 0.02 0.02 0.02 0.02 0.02 0.02 0.02 0.02 0.02 0.02 0.02 0.02 0.02 0.02 0.02 0.02 0.02 0.02 0.02 0.02 0.02 0.02 0.02 0.02 0.02 0.02 0.02 0.02 0.02 0.02 0.02 0.02 0.02 0.02 0.02 0.02 0.02 0.02 0.02 0.02 0.02 0.02 0.02 0.02 0.02 0.02 0.02 0.02 0.02 0.02 0.02 0.02 0.02 0.02 0.02 0.02 0.02 0.02 0.02 0.02 0.02 0.02 0.02 0.02 0.0199999 0.0199999 0.0199999 0.0199999 0.0199999 0.0199999 0.0199999 0.0199999 0.0199999 0.0199999 0.0199999 0.0199999 0.0199999 0.0199998 0.0199998 0.0199998 0.0199998 0.0199998 0.0199998 0.0199997 0.0199997 0.0199997 0.0199997 0.0199997 0.0199996 0.0199996 0.0199996 0.0199995 0.0199995 0.0199995 0.0199994 0.0199994 0.0199993 0.0199993 0.0199992 0.0199992 0.0199991 0.019999 0.019999 0.0199989 0.0199988 0.0199987 0.0199987 0.0199986 0.0199985 0.0199984 0.0199983 0.0199982 0.0199981 0.019998 0.0199978 0.0199977 0.0199976 0.0199975 0.0199973 0.0199972 0.0199971 0.0199969 0.0199968 0.0199966 0.0199965 0.0199963 0.0199962 0.019996 0.0199958 0.0199957 0.0199955 0.0199954 0.0199952 0.0199951 0.019995 0.0199948 0.0199947 0.0199946 0.0199945 0.0199944 0.0199944 0.0199943 0.0199943 0.0199943 0.0199943 0.0199944 0.0199944 0.0199945 0.0199947 0.0199949 0.0199951 0.0199953 0.0199956 0.019996 0.0199964 0.0199968 0.0199974 0.0199979 0.0199986 0.0199993 0.0200001 0.0200009 0.0200019 0.0200029 0.020004 0.0200052 0.0200065 0.0200079 0.0200094 0.020011 0.0200128 0.0200146 0.0200165 0.0200186 0.0200208 0.0200231 0.0200255 0.0200281 0.0200308 0.0200337 0.0200366 0.0200398 0.020043 0.0200464 0.0200499 0.0200536 0.0200575 0.0200614 0.0200655 0.0200698 0.0200742 0.0200788 0.0200834 0.0200883 0.0200932 0.0200984 0.0201036 0.020109 0.0201145 0.0201201 0.0201258 0.0201317 0.0201377 0.0201438 0.02015 0.0201562 0.0201626 0.0201691 0.0201756 0.0201822 0.0201889 0.0201956 0.0202024 0.0202092 0.020216 0.0202229 0.0202298 0.0202367 0.0202435 0.0202504 0.0202573 0.0202641 0.020271 0.0202777 0.0202844 0.0202911 0.0202977 0.0203042 0.0203107 0.020317 0.0203233 0.0203294 0.0203355 0.0203414 0.0203473 0.020353 0.0203586 0.020364 0.0203694 0.0203746 0.0203796 0.0203846 0.0203894 0.020394 0.0203985 0.0204029 0.0204072 0.0204113 0.0204153 0.0204192 0.0204229 0.0204265 0.02043 0.0204335 0.0204368 0.02044 0.0204431 0.0204461 0.0204491 0.020452 0.0204548 0.0204576 0.0204603 0.0204629 0.0204656 0.0204682 0.0204707 0.0204733 0.0204759 0.0204784 0.020481 0.0204835 0.0204861 0.0204887 0.0204913 0.0204939 0.0204966 0.0204993 0.020502 0.0205047 0.0205075 0.0205103 0.0205132 0.0205161 0.020519 0.020522 0.020525 0.020528 0.020531 0.0205341 0.0205371 0.0205402 0.0205433 0.0205463 0.0205493 0.0205524 0.0205553 0.0205582 0.0205611 0.0205639 0.0205666 0.0205692 0.0205717 0.020574 0.0205762 0.0205783 0.0205802 0.0205819 0.0205833 0.0205846 0.0205855 0.0205862 0.0205867 0.0205867 0.0205865 0.0205859 0.0205849 0.0205835 0.0205817 0.0205795 0.0205767 0.0205735 0.0205698 0.0205656 0.0205608 0.0205554 0.0205494 0.0205428 0.0205355 0.0205275 0.0205188 0.0205093 0.020499 0.0204878 0.0204756 0.0204625 0.0204483 0.020433 0.0204165 0.0203989 0.0203799 0.0203597 0.020338 0.020315 0.0202905 0.0202645 0.020237 0.0202079 0.0201772 0.0201449 0.020111 0.0200755 0.0200383 0.0199995 0.0199591 0.0199172 0.0198739 0.0198292 0.0197833 0.0197363 0.0196882 0.0196393 0.0195898 0.0195397 0.0194892 0.0194386 0.0193879 0.0193374 0.0192871 0.0192373 0.0191879 0.0191392 0.0190912 0.019044 0.0189977 0.0189524 0.018908 0.0188647 0.0188226 0.0187815 0.0187417 0.0187031 0.0186657 0.0186293 0.0185938 0.0185587 0.0185232 0.0184851 0.0184411 0.0183843 0.0183086 0.0182342 0.0181662 0.0180956 0.0180179 0.0179297 0.0178277 0.0177087 0.0175693 0.0174061 0.0172153 0.016993 0.0167351 0.0164372 0.0160947 0.0157024 0.0152546 0.0147461 0.014176 0.0135518 0.0128954 0.0123092 0.0117136 0.0127862 0 0 0 0 0 0 0 0 0 0 0 0 0 0 0 0 0 0 0 0 0 0 0 0 0 0 0 0 0 0 0 0 0 0 0 0 0 0 0 0 0 0 0 0 0 0 0 0 0 0 0 0 0 0 0 0 0 0 0 0 0 0 0 0 0 0 0 0 0 0 0 0 0 0 0 0 0 0 0 0 0 0 0 0 0 0 0 0 
0.0213163 0.0212871 0.0212442 0.0211995 0.0211541 0.0211084 0.0210622 0.0210159 0.0209693 0.0209227 0.0208761 0.0208296 0.0207834 0.0207376 0.0206922 0.0206475 0.0206035 0.0205604 0.0205184 0.0204774 0.0204378 0.0203996 0.0203629 0.0203279 0.0202946 0.0202632 0.0202337 0.0202061 0.0201806 0.0201571 0.0201356 0.0201162 0.0200987 0.0200831 0.0200693 0.0200573 0.0200468 0.0200379 0.0200303 0.0200239 0.0200187 0.0200144 0.0200109 0.0200081 0.020006 0.0200043 0.0200031 0.0200021 0.0200014 0.020001 0.0200006 0.0200004 0.0200002 0.0200001 0.0200001 0.02 0.02 0.02 0.02 0.02 0.02 0.02 0.02 0.02 0.02 0.02 0.02 0.02 0.02 0.02 0.02 0.02 0.02 0.02 0.02 0.02 0.02 0.02 0.02 0.02 0.02 0.02 0.02 0.02 0.02 0.02 0.02 0.02 0.02 0.02 0.02 0.02 0.02 0.02 0.02 0.02 0.02 0.02 0.02 0.02 0.02 0.02 0.02 0.02 0.02 0.02 0.02 0.02 0.02 0.02 0.02 0.02 0.02 0.02 0.02 0.02 0.02 0.02 0.02 0.02 0.02 0.02 0.02 0.02 0.02 0.02 0.02 0.02 0.02 0.02 0.02 0.02 0.02 0.02 0.02 0.02 0.02 0.02 0.02 0.02 0.02 0.02 0.02 0.02 0.02 0.02 0.02 0.02 0.02 0.02 0.02 0.02 0.02 0.02 0.02 0.02 0.02 0.02 0.02 0.02 0.02 0.02 0.02 0.02 0.02 0.02 0.02 0.02 0.02 0.02 0.02 0.02 0.02 0.02 0.02 0.02 0.02 0.02 0.02 0.02 0.02 0.02 0.02 0.0199999 0.0199999 0.0199999 0.0199999 0.0199999 0.0199999 0.0199999 0.0199999 0.0199999 0.0199999 0.0199999 0.0199999 0.0199999 0.0199998 0.0199998 0.0199998 0.0199998 0.0199998 0.0199998 0.0199997 0.0199997 0.0199997 0.0199997 0.0199997 0.0199996 0.0199996 0.0199996 0.0199995 0.0199995 0.0199995 0.0199994 0.0199994 0.0199993 0.0199993 0.0199992 0.0199992 0.0199991 0.019999 0.019999 0.0199989 0.0199988 0.0199988 0.0199987 0.0199986 0.0199985 0.0199984 0.0199983 0.0199982 0.0199981 0.019998 0.0199979 0.0199977 0.0199976 0.0199975 0.0199974 0.0199972 0.0199971 0.0199969 0.0199968 0.0199966 0.0199965 0.0199963 0.0199962 0.019996 0.0199959 0.0199957 0.0199956 0.0199954 0.0199953 0.0199951 0.019995 0.0199949 0.0199948 0.0199947 0.0199946 0.0199945 0.0199944 0.0199944 0.0199943 0.0199943 0.0199943 0.0199944 0.0199945 0.0199946 0.0199947 0.0199949 0.0199951 0.0199953 0.0199956 0.019996 0.0199964 0.0199968 0.0199973 0.0199979 0.0199985 0.0199992 0.02 0.0200009 0.0200018 0.0200028 0.0200039 0.0200051 0.0200064 0.0200078 0.0200093 0.0200109 0.0200126 0.0200144 0.0200163 0.0200184 0.0200206 0.0200229 0.0200253 0.0200278 0.0200305 0.0200334 0.0200363 0.0200394 0.0200426 0.020046 0.0200495 0.0200532 0.020057 0.020061 0.0200651 0.0200693 0.0200737 0.0200782 0.0200829 0.0200877 0.0200926 0.0200977 0.020103 0.0201083 0.0201138 0.0201194 0.0201251 0.020131 0.020137 0.020143 0.0201492 0.0201555 0.0201618 0.0201683 0.0201748 0.0201814 0.020188 0.0201948 0.0202015 0.0202083 0.0202152 0.020222 0.0202289 0.0202358 0.0202427 0.0202496 0.0202565 0.0202634 0.0202702 0.020277 0.0202837 0.0202904 0.020297 0.0203035 0.02031 0.0203164 0.0203227 0.0203289 0.020335 0.020341 0.0203468 0.0203526 0.0203582 0.0203637 0.0203691 0.0203743 0.0203795 0.0203844 0.0203893 0.020394 0.0203986 0.020403 0.0204073 0.0204115 0.0204155 0.0204194 0.0204232 0.0204269 0.0204305 0.020434 0.0204373 0.0204406 0.0204437 0.0204468 0.0204498 0.0204527 0.0204556 0.0204584 0.0204611 0.0204638 0.0204665 0.0204691 0.0204717 0.0204743 0.0204768 0.0204794 0.0204819 0.0204845 0.020487 0.0204896 0.0204922 0.0204948 0.0204974 0.0205001 0.0205028 0.0205055 0.0205082 0.020511 0.0205138 0.0205167 0.0205195 0.0205224 0.0205254 0.0205283 0.0205313 0.0205342 0.0205372 0.0205402 0.0205432 0.0205461 0.0205491 0.020552 0.0205549 0.0205577 0.0205605 0.0205632 0.0205658 0.0205683 0.0205707 0.020573 0.0205751 0.0205771 0.0205789 0.0205805 0.0205819 0.0205831 0.020584 0.0205846 0.020585 0.020585 0.0205847 0.0205841 0.0205831 0.0205816 0.0205798 0.0205776 0.0205749 0.0205717 0.020568 0.0205639 0.0205592 0.0205539 0.0205481 0.0205416 0.0205345 0.0205267 0.0205183 0.020509 0.020499 0.0204881 0.0204763 0.0204635 0.0204496 0.0204346 0.0204185 0.0204012 0.0203825 0.0203626 0.0203413 0.0203186 0.0202944 0.0202688 0.0202416 0.0202129 0.0201826 0.0201507 0.0201172 0.020082 0.0200452 0.0200069 0.0199669 0.0199255 0.0198825 0.0198383 0.0197928 0.0197461 0.0196984 0.0196499 0.0196006 0.0195508 0.0195006 0.0194502 0.0193998 0.0193494 0.0192993 0.0192495 0.0192002 0.0191515 0.0191034 0.0190562 0.0190097 0.0189642 0.0189196 0.018876 0.0188335 0.0187921 0.0187518 0.0187126 0.0186744 0.0186371 0.0186003 0.0185633 0.0185249 0.0184828 0.0184343 0.0183772 0.0183102 0.0182428 0.0181751 0.018104 0.018026 0.0179376 0.0178356 0.0177168 0.0175779 0.0174153 0.0172253 0.0170042 0.0167476 0.0164512 0.0161105 0.0157202 0.0152746 0.0147684 0.0142025 0.0135888 0.0129663 0.012399 0.011401 0.0112091 0.0103314 0.00926785 0.00819969 0.00701795 0.00705784 0 0 0 0 0 0 0 0 0 0 0 0 0 0 0 0 0 0 0 0 0 0 0 0 0 0 0 0 0 0 0 0 0 0 0 0 0 0 0 0 0 0 0 0 0 0 0 0 0 0 0 0 0 0 0 0 0 0 0 0 0 0 0 0 0 0 0 0 0 0 0 0 0 0 0 0 0 0 0 0 0 0 0 
0.0213163 0.0212814 0.0212404 0.0211969 0.021152 0.0211065 0.0210605 0.0210141 0.0209675 0.0209208 0.0208741 0.0208276 0.0207813 0.0207354 0.02069 0.0206452 0.0206011 0.020558 0.0205159 0.020475 0.0204353 0.0203971 0.0203605 0.0203255 0.0202923 0.020261 0.0202316 0.0202042 0.0201788 0.0201555 0.0201342 0.0201148 0.0200975 0.0200821 0.0200684 0.0200565 0.0200462 0.0200373 0.0200298 0.0200235 0.0200184 0.0200141 0.0200107 0.020008 0.0200059 0.0200042 0.020003 0.0200021 0.0200014 0.0200009 0.0200006 0.0200004 0.0200002 0.0200001 0.0200001 0.02 0.02 0.02 0.02 0.02 0.02 0.02 0.02 0.02 0.02 0.02 0.02 0.02 0.02 0.02 0.02 0.02 0.02 0.02 0.02 0.02 0.02 0.02 0.02 0.02 0.02 0.02 0.02 0.02 0.02 0.02 0.02 0.02 0.02 0.02 0.02 0.02 0.02 0.02 0.02 0.02 0.02 0.02 0.02 0.02 0.02 0.02 0.02 0.02 0.02 0.02 0.02 0.02 0.02 0.02 0.02 0.02 0.02 0.02 0.02 0.02 0.02 0.02 0.02 0.02 0.02 0.02 0.02 0.02 0.02 0.02 0.02 0.02 0.02 0.02 0.02 0.02 0.02 0.02 0.02 0.02 0.02 0.02 0.02 0.02 0.02 0.02 0.02 0.02 0.02 0.02 0.02 0.02 0.02 0.02 0.02 0.02 0.02 0.02 0.02 0.02 0.02 0.02 0.02 0.02 0.02 0.02 0.02 0.02 0.02 0.02 0.02 0.02 0.02 0.02 0.02 0.02 0.02 0.02 0.02 0.02 0.02 0.02 0.02 0.02 0.02 0.02 0.02 0.02 0.0199999 0.0199999 0.0199999 0.0199999 0.0199999 0.0199999 0.0199999 0.0199999 0.0199999 0.0199999 0.0199999 0.0199999 0.0199999 0.0199998 0.0199998 0.0199998 0.0199998 0.0199998 0.0199998 0.0199997 0.0199997 0.0199997 0.0199997 0.0199996 0.0199996 0.0199996 0.0199995 0.0199995 0.0199995 0.0199994 0.0199994 0.0199993 0.0199993 0.0199992 0.0199992 0.0199991 0.0199991 0.019999 0.0199989 0.0199989 0.0199988 0.0199987 0.0199986 0.0199985 0.0199984 0.0199983 0.0199982 0.0199981 0.019998 0.0199979 0.0199978 0.0199977 0.0199975 0.0199974 0.0199973 0.0199971 0.019997 0.0199968 0.0199967 0.0199965 0.0199964 0.0199962 0.0199961 0.0199959 0.0199958 0.0199956 0.0199955 0.0199953 0.0199952 0.0199951 0.0199949 0.0199948 0.0199947 0.0199946 0.0199945 0.0199945 0.0199944 0.0199944 0.0199944 0.0199944 0.0199944 0.0199945 0.0199946 0.0199947 0.0199949 0.0199951 0.0199953 0.0199956 0.019996 0.0199964 0.0199968 0.0199973 0.0199979 0.0199985 0.0199992 0.02 0.0200008 0.0200018 0.0200028 0.0200039 0.0200051 0.0200063 0.0200077 0.0200092 0.0200108 0.0200124 0.0200142 0.0200162 0.0200182 0.0200203 0.0200226 0.020025 0.0200276 0.0200302 0.020033 0.020036 0.020039 0.0200422 0.0200456 0.0200491 0.0200527 0.0200565 0.0200604 0.0200645 0.0200687 0.0200731 0.0200776 0.0200822 0.020087 0.0200919 0.020097 0.0201022 0.0201075 0.0201129 0.0201185 0.0201242 0.02013 0.020136 0.020142 0.0201482 0.0201544 0.0201607 0.0201671 0.0201736 0.0201802 0.0201869 0.0201936 0.0202003 0.0202071 0.0202139 0.0202208 0.0202277 0.0202346 0.0202415 0.0202483 0.0202552 0.0202621 0.0202689 0.0202757 0.0202824 0.0202891 0.0202958 0.0203023 0.0203088 0.0203152 0.0203216 0.0203278 0.0203339 0.0203399 0.0203459 0.0203517 0.0203573 0.0203629 0.0203683 0.0203736 0.0203788 0.0203838 0.0203887 0.0203935 0.0203982 0.0204027 0.020407 0.0204113 0.0204154 0.0204194 0.0204233 0.020427 0.0204307 0.0204342 0.0204376 0.020441 0.0204442 0.0204474 0.0204504 0.0204534 0.0204563 0.0204592 0.020462 0.0204648 0.0204675 0.0204701 0.0204728 0.0204754 0.020478 0.0204806 0.0204831 0.0204857 0.0204883 0.0204909 0.0204934 0.0204961 0.0204987 0.0205013 0.020504 0.0205067 0.0205094 0.0205121 0.0205149 0.0205177 0.0205205 0.0205233 0.0205261 0.020529 0.0205319 0.0205348 0.0205377 0.0205406 0.0205434 0.0205463 0.0205491 0.0205519 0.0205547 0.0205574 0.0205601 0.0205626 0.0205651 0.0205675 0.0205698 0.020572 0.020574 0.0205758 0.0205775 0.020579 0.0205802 0.0205813 0.0205821 0.0205826 0.0205828 0.0205827 0.0205823 0.0205816 0.0205805 0.020579 0.0205772 0.0205749 0.0205722 0.020569 0.0205654 0.0205613 0.0205567 0.0205516 0.0205459 0.0205396 0.0205327 0.0205252 0.0205169 0.0205079 0.0204982 0.0204876 0.0204761 0.0204636 0.0204501 0.0204354 0.0204197 0.0204027 0.0203844 0.0203648 0.0203438 0.0203214 0.0202976 0.0202723 0.0202454 0.020217 0.0201871 0.0201556 0.0201224 0.0200877 0.0200514 0.0200135 0.019974 0.0199331 0.0198907 0.019847 0.0198021 0.019756 0.0197089 0.019661 0.0196124 0.0195632 0.0195136 0.0194639 0.019414 0.0193643 0.0193148 0.0192656 0.0192169 0.0191688 0.0191213 0.0190746 0.0190287 0.0189836 0.0189395 0.0188964 0.0188543 0.0188132 0.0187731 0.018734 0.0186958 0.018658 0.0186202 0.0185813 0.0185399 0.0184943 0.0184429 0.0183856 0.0183239 0.01826 0.0181935 0.0181226 0.0180444 0.0179559 0.017854 0.0177354 0.0175968 0.0174348 0.0172458 0.0170257 0.0167706 0.0164759 0.0161372 0.0157493 0.0153066 0.0148048 0.0142466 0.0136525 0.0130652 0.0125029 0.0119136 0.0111245 0.0102114 0.00924345 0.00815541 0.0069905 0.00588803 0.00426933 0.00184064 0.000164607 0 0 0 0 0 0 0 0 0 0 0 0 0 0 0 0 0 0 0 0 0 0 0 0 0 0 0 0 0 0 0 0 0 0 0 0 0 0 0 0 0 0 0 0 0 0 0 0 0 0 0 0 0 0 0 0 0 0 0 0 0 0 0 0 0 0 0 0 0 0 0 0 0 0 0 0 0 0 0 -8.67362e-19 
0.0213163 0.0212788 0.0212381 0.0211951 0.0211507 0.0211054 0.0210595 0.0210132 0.0209666 0.0209198 0.0208731 0.0208265 0.0207801 0.0207341 0.0206886 0.0206437 0.0205996 0.0205564 0.0205142 0.0204732 0.0204336 0.0203954 0.0203587 0.0203238 0.0202906 0.0202593 0.02023 0.0202027 0.0201774 0.0201541 0.0201329 0.0201137 0.0200965 0.0200812 0.0200676 0.0200558 0.0200456 0.0200368 0.0200294 0.0200232 0.0200181 0.0200139 0.0200105 0.0200079 0.0200058 0.0200042 0.020003 0.0200021 0.0200014 0.0200009 0.0200006 0.0200004 0.0200002 0.0200001 0.0200001 0.02 0.02 0.02 0.02 0.02 0.02 0.02 0.02 0.02 0.02 0.02 0.02 0.02 0.02 0.02 0.02 0.02 0.02 0.02 0.02 0.02 0.02 0.02 0.02 0.02 0.02 0.02 0.02 0.02 0.02 0.02 0.02 0.02 0.02 0.02 0.02 0.02 0.02 0.02 0.02 0.02 0.02 0.02 0.02 0.02 0.02 0.02 0.02 0.02 0.02 0.02 0.02 0.02 0.02 0.02 0.02 0.02 0.02 0.02 0.02 0.02 0.02 0.02 0.02 0.02 0.02 0.02 0.02 0.02 0.02 0.02 0.02 0.02 0.02 0.02 0.02 0.02 0.02 0.02 0.02 0.02 0.02 0.02 0.02 0.02 0.02 0.02 0.02 0.02 0.02 0.02 0.02 0.02 0.02 0.02 0.02 0.02 0.02 0.02 0.02 0.02 0.02 0.02 0.02 0.02 0.02 0.02 0.02 0.02 0.02 0.02 0.02 0.02 0.02 0.02 0.02 0.02 0.02 0.02 0.02 0.02 0.02 0.02 0.02 0.02 0.02 0.02 0.02 0.02 0.0199999 0.0199999 0.0199999 0.0199999 0.0199999 0.0199999 0.0199999 0.0199999 0.0199999 0.0199999 0.0199999 0.0199999 0.0199999 0.0199998 0.0199998 0.0199998 0.0199998 0.0199998 0.0199998 0.0199997 0.0199997 0.0199997 0.0199997 0.0199996 0.0199996 0.0199996 0.0199996 0.0199995 0.0199995 0.0199994 0.0199994 0.0199994 0.0199993 0.0199993 0.0199992 0.0199991 0.0199991 0.019999 0.0199989 0.0199989 0.0199988 0.0199987 0.0199986 0.0199986 0.0199985 0.0199984 0.0199983 0.0199982 0.019998 0.0199979 0.0199978 0.0199977 0.0199976 0.0199974 0.0199973 0.0199972 0.019997 0.0199969 0.0199967 0.0199966 0.0199964 0.0199963 0.0199961 0.019996 0.0199958 0.0199957 0.0199955 0.0199954 0.0199952 0.0199951 0.019995 0.0199949 0.0199948 0.0199947 0.0199946 0.0199945 0.0199945 0.0199944 0.0199944 0.0199944 0.0199945 0.0199946 0.0199947 0.0199948 0.0199949 0.0199951 0.0199954 0.0199957 0.019996 0.0199964 0.0199968 0.0199973 0.0199979 0.0199985 0.0199992 0.02 0.0200008 0.0200017 0.0200027 0.0200038 0.020005 0.0200062 0.0200076 0.0200091 0.0200106 0.0200123 0.0200141 0.020016 0.020018 0.0200201 0.0200224 0.0200247 0.0200272 0.0200299 0.0200326 0.0200355 0.0200386 0.0200418 0.0200451 0.0200485 0.0200521 0.0200559 0.0200598 0.0200638 0.020068 0.0200723 0.0200767 0.0200813 0.0200861 0.020091 0.020096 0.0201011 0.0201064 0.0201118 0.0201174 0.020123 0.0201288 0.0201347 0.0201407 0.0201468 0.020153 0.0201593 0.0201657 0.0201721 0.0201787 0.0201853 0.020192 0.0201987 0.0202055 0.0202123 0.0202191 0.020226 0.0202328 0.0202397 0.0202466 0.0202535 0.0202603 0.0202672 0.020274 0.0202807 0.0202874 0.0202941 0.0203007 0.0203072 0.0203136 0.02032 0.0203262 0.0203324 0.0203385 0.0203444 0.0203503 0.020356 0.0203616 0.0203671 0.0203725 0.0203778 0.0203829 0.0203879 0.0203927 0.0203974 0.020402 0.0204065 0.0204109 0.0204151 0.0204192 0.0204231 0.020427 0.0204307 0.0204344 0.0204379 0.0204413 0.0204446 0.0204479 0.020451 0.0204541 0.0204571 0.0204601 0.0204629 0.0204658 0.0204685 0.0204713 0.020474 0.0204766 0.0204793 0.0204819 0.0204845 0.0204871 0.0204897 0.0204923 0.0204949 0.0204975 0.0205001 0.0205027 0.0205053 0.020508 0.0205106 0.0205133 0.020516 0.0205187 0.0205215 0.0205242 0.020527 0.0205297 0.0205325 0.0205353 0.0205381 0.0205408 0.0205436 0.0205463 0.020549 0.0205517 0.0205543 0.0205568 0.0205593 0.0205617 0.020564 0.0205663 0.0205684 0.0205703 0.0205722 0.0205738 0.0205753 0.0205766 0.0205777 0.0205786 0.0205792 0.0205796 0.0205797 0.0205795 0.020579 0.0205781 0.020577 0.0205754 0.0205735 0.0205713 0.0205686 0.0205655 0.020562 0.020558 0.0205535 0.0205486 0.020543 0.020537 0.0205303 0.0205229 0.0205149 0.0205062 0.0204967 0.0204864 0.0204752 0.0204631 0.02045 0.0204358 0.0204205 0.020404 0.0203862 0.0203671 0.0203466 0.0203247 0.0203013 0.0202765 0.0202501 0.0202222 0.0201927 0.0201617 0.0201291 0.020095 0.0200592 0.020022 0.0199832 0.019943 0.0199014 0.0198585 0.0198144 0.0197691 0.0197229 0.0196759 0.0196282 0.0195799 0.0195313 0.0194825 0.0194336 0.0193848 0.0193362 0.019288 0.0192402 0.019193 0.0191464 0.0191005 0.0190554 0.0190112 0.0189678 0.0189254 0.0188839 0.0188433 0.0188036 0.0187647 0.0187262 0.0186877 0.0186485 0.0186075 0.0185636 0.0185156 0.0184632 0.0184068 0.0183475 0.0182857 0.0182205 0.0181501 0.0180721 0.0179837 0.017882 0.0177639 0.0176262 0.0174653 0.0172778 0.0170597 0.0168069 0.016515 0.0161796 0.015796 0.015359 0.0148655 0.0143207 0.0137467 0.0131716 0.0125958 0.011957 0.0111767 0.0102929 0.00931989 0.00824334 0.00708561 0.00577103 0.0040638 0.00181789 -0.000773231 -0.00385456 -0.00596338 0 0 0 0 0 0 0 0 0 0 0 0 0 0 0 0 0 0 0 0 0 0 0 0 0 0 0 0 0 0 0 0 0 0 0 0 0 0 0 0 0 0 0 0 0 0 0 0 0 0 0 0 0 0 0 0 0 0 0 0 0 0 0 0 0 0 0 0 0 0 0 0 0 0 0 0 0 -8.67362e-19 
0.0213163 0.0212772 0.0212364 0.0211937 0.0211496 0.0211045 0.0210587 0.0210124 0.0209658 0.020919 0.0208722 0.0208255 0.0207791 0.020733 0.0206874 0.0206424 0.0205982 0.0205549 0.0205127 0.0204717 0.020432 0.0203938 0.0203571 0.0203222 0.0202891 0.0202578 0.0202285 0.0202013 0.0201761 0.0201529 0.0201318 0.0201127 0.0200956 0.0200803 0.0200669 0.0200552 0.020045 0.0200364 0.020029 0.0200229 0.0200178 0.0200137 0.0200104 0.0200077 0.0200057 0.0200041 0.0200029 0.020002 0.0200014 0.0200009 0.0200006 0.0200004 0.0200002 0.0200001 0.0200001 0.02 0.02 0.02 0.02 0.02 0.02 0.02 0.02 0.02 0.02 0.02 0.02 0.02 0.02 0.02 0.02 0.02 0.02 0.02 0.02 0.02 0.02 0.02 0.02 0.02 0.02 0.02 0.02 0.02 0.02 0.02 0.02 0.02 0.02 0.02 0.02 0.02 0.02 0.02 0.02 0.02 0.02 0.02 0.02 0.02 0.02 0.02 0.02 0.02 0.02 0.02 0.02 0.02 0.02 0.02 0.02 0.02 0.02 0.02 0.02 0.02 0.02 0.02 0.02 0.02 0.02 0.02 0.02 0.02 0.02 0.02 0.02 0.02 0.02 0.02 0.02 0.02 0.02 0.02 0.02 0.02 0.02 0.02 0.02 0.02 0.02 0.02 0.02 0.02 0.02 0.02 0.02 0.02 0.02 0.02 0.02 0.02 0.02 0.02 0.02 0.02 0.02 0.02 0.02 0.02 0.02 0.02 0.02 0.02 0.02 0.02 0.02 0.02 0.02 0.02 0.02 0.02 0.02 0.02 0.02 0.02 0.02 0.02 0.02 0.02 0.02 0.02 0.02 0.02 0.0199999 0.0199999 0.0199999 0.0199999 0.0199999 0.0199999 0.0199999 0.0199999 0.0199999 0.0199999 0.0199999 0.0199999 0.0199999 0.0199998 0.0199998 0.0199998 0.0199998 0.0199998 0.0199998 0.0199997 0.0199997 0.0199997 0.0199997 0.0199997 0.0199996 0.0199996 0.0199996 0.0199995 0.0199995 0.0199995 0.0199994 0.0199994 0.0199993 0.0199993 0.0199992 0.0199992 0.0199991 0.019999 0.019999 0.0199989 0.0199988 0.0199988 0.0199987 0.0199986 0.0199985 0.0199984 0.0199983 0.0199982 0.0199981 0.019998 0.0199979 0.0199977 0.0199976 0.0199975 0.0199974 0.0199972 0.0199971 0.0199969 0.0199968 0.0199967 0.0199965 0.0199964 0.0199962 0.0199961 0.0199959 0.0199958 0.0199956 0.0199955 0.0199953 0.0199952 0.0199951 0.019995 0.0199949 0.0199948 0.0199947 0.0199946 0.0199946 0.0199945 0.0199945 0.0199945 0.0199946 0.0199946 0.0199947 0.0199949 0.019995 0.0199952 0.0199955 0.0199958 0.0199961 0.0199965 0.0199969 0.0199974 0.0199979 0.0199986 0.0199992 0.02 0.0200008 0.0200017 0.0200027 0.0200038 0.0200049 0.0200062 0.0200075 0.0200089 0.0200105 0.0200121 0.0200139 0.0200157 0.0200177 0.0200198 0.020022 0.0200244 0.0200269 0.0200295 0.0200322 0.0200351 0.0200381 0.0200412 0.0200445 0.0200479 0.0200514 0.0200551 0.020059 0.020063 0.0200671 0.0200713 0.0200758 0.0200803 0.020085 0.0200898 0.0200948 0.0200999 0.0201051 0.0201105 0.0201159 0.0201215 0.0201273 0.0201331 0.0201391 0.0201451 0.0201513 0.0201575 0.0201639 0.0201703 0.0201768 0.0201833 0.02019 0.0201967 0.0202034 0.0202102 0.020217 0.0202238 0.0202307 0.0202375 0.0202444 0.0202513 0.0202581 0.0202649 0.0202717 0.0202785 0.0202852 0.0202919 0.0202985 0.0203051 0.0203115 0.0203179 0.0203242 0.0203305 0.0203366 0.0203426 0.0203485 0.0203543 0.02036 0.0203656 0.020371 0.0203764 0.0203816 0.0203867 0.0203916 0.0203964 0.0204011 0.0204057 0.0204102 0.0204145 0.0204187 0.0204228 0.0204268 0.0204306 0.0204344 0.020438 0.0204415 0.020445 0.0204483 0.0204516 0.0204548 0.0204579 0.0204609 0.0204639 0.0204668 0.0204696 0.0204725 0.0204752 0.0204779 0.0204806 0.0204833 0.0204859 0.0204886 0.0204912 0.0204938 0.0204963 0.0204989 0.0205015 0.0205041 0.0205067 0.0205093 0.0205119 0.0205145 0.0205171 0.0205198 0.0205224 0.020525 0.0205277 0.0205303 0.020533 0.0205356 0.0205382 0.0205408 0.0205434 0.0205459 0.0205484 0.0205509 0.0205533 0.0205557 0.020558 0.0205602 0.0205623 0.0205643 0.0205662 0.0205679 0.0205695 0.020571 0.0205723 0.0205734 0.0205743 0.0205749 0.0205754 0.0205756 0.0205756 0.0205752 0.0205746 0.0205737 0.0205725 0.020571 0.0205691 0.0205669 0.0205643 0.0205613 0.0205579 0.0205541 0.0205498 0.020545 0.0205396 0.0205337 0.0205272 0.0205201 0.0205123 0.0205038 0.0204946 0.0204845 0.0204737 0.0204619 0.0204492 0.0204355 0.0204207 0.0204048 0.0203877 0.0203693 0.0203495 0.0203283 0.0203056 0.0202814 0.0202558 0.0202286 0.0201998 0.0201695 0.0201377 0.0201043 0.0200694 0.0200331 0.0199952 0.0199559 0.0199153 0.0198734 0.0198304 0.0197863 0.0197412 0.0196953 0.0196488 0.0196018 0.0195544 0.0195068 0.0194591 0.0194115 0.0193641 0.0193171 0.0192704 0.0192244 0.0191789 0.0191341 0.01909 0.0190467 0.0190042 0.0189626 0.0189217 0.0188817 0.0188423 0.0188033 0.0187643 0.0187249 0.0186841 0.0186411 0.0185952 0.0185459 0.0184935 0.0184382 0.0183805 0.0183201 0.0182558 0.0181859 0.0181082 0.0180203 0.0179192 0.017802 0.0176655 0.0175064 0.017321 0.0171057 0.0168562 0.0165682 0.0162377 0.0158603 0.0154322 0.0149515 0.0144243 0.0138667 0.013295 0.0126978 0.0120348 0.011263 0.0103971 0.0094436 0.00837853 0.00719975 0.00580396 0.00404143 0.00173782 -0.00114959 -0.00453308 -0.00818577 -0.0071369 0 0 0 0 0 0 0 0 0 0 0 0 0 0 0 0 0 0 0 0 0 0 0 0 0 0 0 0 0 0 0 0 0 0 0 0 0 0 0 0 0 0 0 0 0 0 0 0 0 0 0 0 0 0 0 0 0 0 0 0 0 0 0 0 0 0 0 0 0 0 0 0 0 0 0 0 5.20417e-18 