# vtk DataFile Version 2.0
iteration 513
ASCII

DATASET STRUCTURED_POINTS
DIMENSIONS 621 64 1
ORIGIN 0 0 0
SPACING 0.00161031 0.00161031 0.00161031

POINT_DATA 39744
SCALARS P float 1
LOOKUP_TABLE default
0 0 0 0 0 0 0 0 0 0 0 0 0 0 0 0 0 0 0 0 0 0 0 0 0 0 0 0 0 0 0 0 0 0 0 0 0 0 0 0 0 0 0 0 0 0 0 0 0 0 0 0 0 0 0 0 0 0 0 0 0 0 0 0 0 0 0 0 0 0 0 0 0 0 0 0 0 0 0 0 0 0 0 0 0 0 0 0 0 0 0 0 0 0 0 0 0 0 0 0 0 0 0 0 0 0 0 0 0 0 0 0 0 0 0 0 0 0 0 0 0 0 0 0 0 0 0 0 0 0 0 0 0 0 0 0 0 0 0 0 0 0 0 0 0 0 0 0 0 0 0 0 0 0 0 0 0 0 0 0 0 0 0 0 0 0 0 0 0 0 0 0 0 0 0 0 0 0 0 0 0 0 0 0 0 0 0 0 0 0 0 0 0 0 0 0 0 0 0 0 0 0 0 0 0 0 0 0 0 0 0 0 0 0 0 0 0 0 0 0 0 0 0 0 0 0 0 0 0 0 0 0 0 0 0 0 0 0 0 0 0 0 0 0 0 0 0 0 0 0 0 0 0 0 0 0 0 0 0 0 0 0 0 0 0 0 0 0 0 0 0 0 0 0 0 0 0 0 0 0 0 0 0 0 0 0 0 0 0 0 0 0 0 0 0 0 0 0 0 0 0 0 0 0 0 0 0 0 0 0 0 0 0 0 0 0 0 0 0 0 0 0 0 0 0 0 0 0 0 0 0 0 0 0 0 0 0 0 0 0 0 0 0 0 0 0 0 0 0 0 0 0 0 0 0 0 0 0 0 0 0 0 0 0 0 0 0 0 0 0 0 0 0 0 0 0 0 0 0 0 0 0 0 0 0 0 0 0 0 0 0 0 0 0 0 0 0 0 0 0 0 0 0 0 0 0 0 0 0 0 0 0 0 0 0 0 0 0 0 0 0 0 0 0 0 0 0 0 0 0 0 0 0 0 0 0 0 0 0 0 0 0 0 0 0 0 0 0 0 0 0 0 0 0 0 0 0 0 0 0 0 0 0 0 0 0 0 0 0 0 0 0 0 0 0 0 0 0 0 0 0 0 0 0 0 0 0 0 0 0 0 0 0 0 0 0 0 0 0 0 0 0 0 0 0 0 0 0 0 0 0 0 0 0 0 0 0 0 0 0 0 0 0 0 0 0 0 0 0 0 0 0 0 0 0 0 0 0 0 0 0 0 0 0 0 0 0 0 0 0 0 0 0 0 0 0 0 0 0 0 0 0 0 0 0 0 0 0 0 0 0 0 0 0 0 0 0 0 0 0 0 0 0 0 0 0 0 0 0 0 0 0 0 0 0 0 0 0 0 0 0 0 0 0 0 0 0 0 0 0 0 0 0 0 0 0 0 0 0 0 0 
0.02 0.02 0.02 0.0199999 0.0199999 0.0199999 0.0199998 0.0199998 0.0199997 0.0199996 0.0199995 0.0199994 0.0199992 0.0199991 0.0199989 0.0199986 0.0199983 0.019998 0.0199977 0.0199973 0.0199969 0.0199964 0.0199959 0.0199953 0.0199947 0.019994 0.0199932 0.0199924 0.0199915 0.0199904 0.0199893 0.0199879 0.0199864 0.0199847 0.0199827 0.0199804 0.0199778 0.0199748 0.0199713 0.0199672 0.0199627 0.0199574 0.0199515 0.0199448 0.0199373 0.019929 0.0199197 0.0199095 0.0198982 0.0198859 0.0198726 0.0198581 0.0198424 0.0198256 0.0198075 0.0197882 0.0197676 0.0197458 0.0197226 0.0196982 0.0196725 0.0196456 0.0196177 0.0195889 0.0195594 0.0195296 0.0194999 0.0194708 0.0194429 0.0194171 0.0193943 0.0193756 0.0193623 0.0193558 0.0193576 0.0193694 0.0193929 0.0194299 0.0194818 0.0195503 0.0196365 0.0197413 0.0198652 0.0200079 0.0201684 0.0203446 0.0205332 0.0207293 0.0209257 0.0210963 0.0212592 0.0213972 0.0215013 0.0215551 0.0215497 0.0214827 0.0213641 0.021208 0.0210285 0.0208586 0.0209989 0.0238906 0 0 0 0 0 0 0 0 0 0 0 0 0 0 0 0 0 0 0 0 0 0 0 0 0 0 0 0 0 0 0 0 0 0 0 0 0 0 0 0 0 0 0 0 0 0 0 0 0 0 0 0 0 0 0 0 0 0 0 0 0 0 0 0 0 0 0 0 0 0 0 0 0 0 0 0 0 0 0 0 0 0 0 0 0 0 0 0 0 0 0 0 0 0 0 0 0 0 0 0 0 0 0 0 0 0 0 0 0 0 0 0 0 0 0 0 0 0 0 0 0 0 0 0 0 0 0 0 0 0 0 0 0 0 0 0 0 0 0 0 0 0 0 0 0 0 0 0 0 0 0 0 0 0 0 0 0 0 0 0 0 0 0 0 0 0 0 0 0 0 0 0 0 0 0 0 0 0 0 0 0 0 0 0 0 0 0 0 0 0 0 0 0 0 0 0 0 0 0 0 0 0 0 0 0 0 0 0 0 0 0 0 0 0 0 0 0 0 0 0 0 0 0 0 0 0 0 0 0 0 0 0 0 0 0 0 0 0 0 0 0 0 0 0 0 0 0 0 0 0 0 0 0 0 0 0 0 0 0 0 0 0 0 0 0 0 0 0 0 0 0 0 0 0 0 0 0 0 0 0 0 0 0 0 0 0 0 0 0 0 0 0 0 0 0 0 0 0 0 0 0 0 0 0 0 0 0 0 0 0 0 0 0 0 0 0 0 0 0 0 0 0 0 0 0 0 0 0 0 0 0 0 0 0 0 0 0 0 0 0 0 0 0 0 0 0 0 0 0 0 0 0 0 0 0 0 0 0 0 0 0 0 0 0 0 0 0 0 0 0 0 0 0 0 0 0 0 0 0 0 0 0 0 0 0 0 0 0 0 0 0 0 0 0 0 0 0 0 0 0 0 0 0 0 0 0 0 0 0 0 0 0 0 0 0 0 0 0 0 0 0 0 0 0 0 0 0 0 0 0 0 0 0 0 0 0 0 0 0 0 0 0 0 0 0 0 0 0 0 0 0 0 0 0 0 0 0 0 0 0 0 0 0 0 0 0 0 0 0 0 0 0 0 0 0 0 0 0 0 0 0 0 0 0 0 0 0 0 0 0 0 0 0 0 0 0 0 0 0 0 0 0 0 0 0 0 0 0 0 0 0 0 0 0 0 0 0 0 0 
0.02 0.02 0.02 0.0199999 0.0199999 0.0199999 0.0199998 0.0199998 0.0199997 0.0199996 0.0199995 0.0199994 0.0199993 0.0199991 0.0199989 0.0199987 0.0199984 0.0199981 0.0199978 0.0199974 0.019997 0.0199966 0.0199961 0.0199955 0.0199949 0.0199943 0.0199936 0.0199928 0.0199919 0.019991 0.0199899 0.0199886 0.0199872 0.0199856 0.0199838 0.0199816 0.0199791 0.0199763 0.019973 0.0199692 0.0199648 0.0199599 0.0199542 0.0199479 0.0199407 0.0199327 0.0199238 0.019914 0.0199032 0.0198914 0.0198785 0.0198645 0.0198494 0.0198331 0.0198156 0.0197969 0.0197769 0.0197556 0.0197331 0.0197093 0.0196842 0.0196579 0.0196306 0.0196023 0.0195733 0.0195439 0.0195145 0.0194856 0.0194578 0.019432 0.019409 0.01939 0.0193761 0.0193688 0.0193695 0.01938 0.0194018 0.0194366 0.019486 0.0195516 0.0196344 0.0197353 0.0198548 0.0199926 0.0201477 0.020318 0.0205004 0.02069 0.0208808 0.0210632 0.0212236 0.0213609 0.0214652 0.0215225 0.0215229 0.0214645 0.0213549 0.0212088 0.0210454 0.0209141 0.0209512 0.0212852 0.0206325 0.0192198 0.0175671 0.0194642 0 0 0 0 0 0 0 0 0 0 0 0 0 0 0 0 0 0 0 0 0 0 0 0 0 0 0 0 0 0 0 0 0 0 0 0 0 0 0 0 0 0 0 0 0 0 0 0 0 0 0 0 0 0 0 0 0 0 0 0 0 0 0 0 0 0 0 0 0 0 0 0 0 0 0 0 0 0 0 0 0 0 0 0 0 0 0 0 0 0 0 0 0 0 0 0 0 0 0 0 0 0 0 0 0 0 0 0 0 0 0 0 0 0 0 0 0 0 0 0 0 0 0 0 0 0 0 0 0 0 0 0 0 0 0 0 0 0 0 0 0 0 0 0 0 0 0 0 0 0 0 0 0 0 0 0 0 0 0 0 0 0 0 0 0 0 0 0 0 0 0 0 0 0 0 0 0 0 0 0 0 0 0 0 0 0 0 0 0 0 0 0 0 0 0 0 0 0 0 0 0 0 0 0 0 0 0 0 0 0 0 0 0 0 0 0 0 0 0 0 0 0 0 0 0 0 0 0 0 0 0 0 0 0 0 0 0 0 0 0 0 0 0 0 0 0 0 0 0 0 0 0 0 0 0 0 0 0 0 0 0 0 0 0 0 0 0 0 0 0 0 0 0 0 0 0 0 0 0 0 0 0 0 0 0 0 0 0 0 0 0 0 0 0 0 0 0 0 0 0 0 0 0 0 0 0 0 0 0 0 0 0 0 0 0 0 0 0 0 0 0 0 0 0 0 0 0 0 0 0 0 0 0 0 0 0 0 0 0 0 0 0 0 0 0 0 0 0 0 0 0 0 0 0 0 0 0 0 0 0 0 0 0 0 0 0 0 0 0 0 0 0 0 0 0 0 0 0 0 0 0 0 0 0 0 0 0 0 0 0 0 0 0 0 0 0 0 0 0 0 0 0 0 0 0 0 0 0 0 0 0 0 0 0 0 0 0 0 0 0 0 0 0 0 0 0 0 0 0 0 0 0 0 0 0 0 0 0 0 0 0 0 0 0 0 0 0 0 0 0 0 0 0 0 0 0 0 0 0 0 0 0 0 0 0 0 0 0 0 0 0 0 0 0 0 0 0 0 0 0 0 0 0 0 0 0 0 0 0 0 0 0 0 0 0 0 0 0 0 0 0 0 0 0 0 0 0 0 0 0 0 0 0 0 0 
0.02 0.02 0.02 0.0199999 0.0199999 0.0199999 0.0199998 0.0199998 0.0199997 0.0199996 0.0199995 0.0199994 0.0199993 0.0199991 0.0199989 0.0199987 0.0199985 0.0199982 0.0199979 0.0199975 0.0199971 0.0199967 0.0199962 0.0199957 0.0199952 0.0199946 0.0199939 0.0199932 0.0199924 0.0199915 0.0199905 0.0199893 0.019988 0.0199865 0.0199848 0.0199828 0.0199805 0.0199779 0.0199748 0.0199712 0.0199671 0.0199624 0.0199571 0.019951 0.0199442 0.0199366 0.0199281 0.0199187 0.0199084 0.0198971 0.0198847 0.0198713 0.0198567 0.019841 0.0198242 0.0198061 0.0197868 0.0197663 0.0197444 0.0197213 0.019697 0.0196715 0.0196448 0.0196173 0.019589 0.0195602 0.0195315 0.0195032 0.0194759 0.0194506 0.019428 0.0194093 0.0193956 0.0193883 0.019389 0.0193991 0.0194204 0.0194544 0.0195027 0.0195667 0.0196474 0.0197458 0.019862 0.0199959 0.0201463 0.0203111 0.0204871 0.0206698 0.0208531 0.0210294 0.0211901 0.0213258 0.0214268 0.0214869 0.0214964 0.0214507 0.0213542 0.0212255 0.0210966 0.0210268 0.0210491 0.0210165 0.0203674 0.0189884 0.0172867 0.016467 0.0187527 0.0175101 0 0 0 0 0 0 0 0 0 0 0 0 0 0 0 0 0 0 0 0 0 0 0 0 0 0 0 0 0 0 0 0 0 0 0 0 0 0 0 0 0 0 0 0 0 0 0 0 0 0 0 0 0 0 0 0 0 0 0 0 0 0 0 0 0 0 0 0 0 0 0 0 0 0 0 0 0 0 0 0 0 0 0 0 0 0 0 0 0 0 0 0 0 0 0 0 0 0 0 0 0 0 0 0 0 0 0 0 0 0 0 0 0 0 0 0 0 0 0 0 0 0 0 0 0 0 0 0 0 0 0 0 0 0 0 0 0 0 0 0 0 0 0 0 0 0 0 0 0 0 0 0 0 0 0 0 0 0 0 0 0 0 0 0 0 0 0 0 0 0 0 0 0 0 0 0 0 0 0 0 0 0 0 0 0 0 0 0 0 0 0 0 0 0 0 0 0 0 0 0 0 0 0 0 0 0 0 0 0 0 0 0 0 0 0 0 0 0 0 0 0 0 0 0 0 0 0 0 0 0 0 0 0 0 0 0 0 0 0 0 0 0 0 0 0 0 0 0 0 0 0 0 0 0 0 0 0 0 0 0 0 0 0 0 0 0 0 0 0 0 0 0 0 0 0 0 0 0 0 0 0 0 0 0 0 0 0 0 0 0 0 0 0 0 0 0 0 0 0 0 0 0 0 0 0 0 0 0 0 0 0 0 0 0 0 0 0 0 0 0 0 0 0 0 0 0 0 0 0 0 0 0 0 0 0 0 0 0 0 0 0 0 0 0 0 0 0 0 0 0 0 0 0 0 0 0 0 0 0 0 0 0 0 0 0 0 0 0 0 0 0 0 0 0 0 0 0 0 0 0 0 0 0 0 0 0 0 0 0 0 0 0 0 0 0 0 0 0 0 0 0 0 0 0 0 0 0 0 0 0 0 0 0 0 0 0 0 0 0 0 0 0 0 0 0 0 0 0 0 0 0 0 0 0 0 0 0 0 0 0 0 0 0 0 0 0 0 0 0 0 0 0 0 0 0 0 0 0 0 0 0 0 0 0 0 0 0 0 0 0 0 0 0 0 0 0 0 0 0 0 0 0 0 0 0 0 0 0 0 0 0 0 0 0 0 0 0 0 0 0 0 0 0 0 0 0 0 0 0 0 0 0 5.42101e-20 
0.02 0.02 0.02 0.0199999 0.0199999 0.0199999 0.0199998 0.0199998 0.0199997 0.0199996 0.0199995 0.0199994 0.0199993 0.0199991 0.019999 0.0199988 0.0199985 0.0199983 0.019998 0.0199976 0.0199973 0.0199969 0.0199964 0.019996 0.0199954 0.0199949 0.0199943 0.0199936 0.0199929 0.0199921 0.0199912 0.0199902 0.019989 0.0199877 0.0199861 0.0199843 0.0199822 0.0199797 0.0199769 0.0199736 0.0199698 0.0199654 0.0199605 0.0199548 0.0199484 0.0199412 0.0199333 0.0199244 0.0199146 0.0199039 0.0198922 0.0198794 0.0198656 0.0198507 0.0198347 0.0198175 0.0197991 0.0197794 0.0197586 0.0197365 0.0197132 0.0196887 0.0196632 0.0196367 0.0196095 0.0195819 0.0195542 0.019527 0.0195009 0.0194765 0.0194549 0.0194371 0.0194242 0.0194177 0.0194189 0.0194294 0.0194508 0.0194846 0.0195322 0.0195951 0.0196742 0.0197702 0.0198833 0.0200132 0.0201586 0.0203175 0.0204866 0.0206615 0.0208362 0.0210035 0.0211554 0.0212837 0.0213811 0.021441 0.0214561 0.0214202 0.0213391 0.0212314 0.0211334 0.021085 0.0210661 0.0209077 0.0202947 0.0190525 0.0173564 0.0155867 0.0146485 0.0154893 0 0 0 0 0 0 0 0 0 0 0 0 0 0 0 0 0 0 0 0 0 0 0 0 0 0 0 0 0 0 0 0 0 0 0 0 0 0 0 0 0 0 0 0 0 0 0 0 0 0 0 0 0 0 0 0 0 0 0 0 0 0 0 0 0 0 0 0 0 0 0 0 0 0 0 0 0 0 0 0 0 0 0 0 0 0 0 0 0 0 0 0 0 0 0 0 0 0 0 0 0 0 0 0 0 0 0 0 0 0 0 0 0 0 0 0 0 0 0 0 0 0 0 0 0 0 0 0 0 0 0 0 0 0 0 0 0 0 0 0 0 0 0 0 0 0 0 0 0 0 0 0 0 0 0 0 0 0 0 0 0 0 0 0 0 0 0 0 0 0 0 0 0 0 0 0 0 0 0 0 0 0 0 0 0 0 0 0 0 0 0 0 0 0 0 0 0 0 0 0 0 0 0 0 0 0 0 0 0 0 0 0 0 0 0 0 0 0 0 0 0 0 0 0 0 0 0 0 0 0 0 0 0 0 0 0 0 0 0 0 0 0 0 0 0 0 0 0 0 0 0 0 0 0 0 0 0 0 0 0 0 0 0 0 0 0 0 0 0 0 0 0 0 0 0 0 0 0 0 0 0 0 0 0 0 0 0 0 0 0 0 0 0 0 0 0 0 0 0 0 0 0 0 0 0 0 0 0 0 0 0 0 0 0 0 0 0 0 0 0 0 0 0 0 0 0 0 0 0 0 0 0 0 0 0 0 0 0 0 0 0 0 0 0 0 0 0 0 0 0 0 0 0 0 0 0 0 0 0 0 0 0 0 0 0 0 0 0 0 0 0 0 0 0 0 0 0 0 0 0 0 0 0 0 0 0 0 0 0 0 0 0 0 0 0 0 0 0 0 0 0 0 0 0 0 0 0 0 0 0 0 0 0 0 0 0 0 0 0 0 0 0 0 0 0 0 0 0 0 0 0 0 0 0 0 0 0 0 0 0 0 0 0 0 0 0 0 0 0 0 0 0 0 0 0 0 0 0 0 0 0 0 0 0 0 0 0 0 0 0 0 0 0 0 0 0 0 0 0 0 0 0 0 0 0 0 0 0 0 0 0 0 0 0 0 0 0 0 0 0 0 0 0 0 0 0 0 0 0 0 0 -0.0041321 -1.0842e-19 
0.02 0.02 0.02 0.0199999 0.0199999 0.0199999 0.0199998 0.0199998 0.0199997 0.0199997 0.0199996 0.0199995 0.0199993 0.0199992 0.019999 0.0199988 0.0199986 0.0199983 0.0199981 0.0199978 0.0199974 0.0199971 0.0199967 0.0199962 0.0199958 0.0199953 0.0199948 0.0199942 0.0199936 0.0199929 0.0199921 0.0199912 0.0199902 0.019989 0.0199876 0.019986 0.0199842 0.019982 0.0199794 0.0199764 0.019973 0.019969 0.0199644 0.0199592 0.0199533 0.0199467 0.0199393 0.0199311 0.019922 0.019912 0.019901 0.0198891 0.0198762 0.0198622 0.0198472 0.0198311 0.0198139 0.0197955 0.0197759 0.0197551 0.0197332 0.0197102 0.0196862 0.0196612 0.0196356 0.0196096 0.0195835 0.0195579 0.0195334 0.0195106 0.0194906 0.0194742 0.0194628 0.0194575 0.0194597 0.0194711 0.019493 0.0195269 0.0195743 0.0196362 0.0197137 0.0198073 0.0199171 0.0200427 0.0201826 0.020335 0.0204964 0.0206624 0.0208273 0.0209842 0.0211253 0.0212431 0.0213307 0.0213829 0.0213953 0.0213644 0.0212939 0.0212029 0.0211216 0.0210679 0.0210046 0.0207937 0.020207 0.0190553 0.0172491 0.0149367 0.0120047 0.00998041 0.0109081 0 0 0 0 0 0 0 0 0 0 0 0 0 0 0 0 0 0 0 0 0 0 0 0 0 0 0 0 0 0 0 0 0 0 0 0 0 0 0 0 0 0 0 0 0 0 0 0 0 0 0 0 0 0 0 0 0 0 0 0 0 0 0 0 0 0 0 0 0 0 0 0 0 0 0 0 0 0 0 0 0 0 0 0 0 0 0 0 0 0 0 0 0 0 0 0 0 0 0 0 0 0 0 0 0 0 0 0 0 0 0 0 0 0 0 0 0 0 0 0 0 0 0 0 0 0 0 0 0 0 0 0 0 0 0 0 0 0 0 0 0 0 0 0 0 0 0 0 0 0 0 0 0 0 0 0 0 0 0 0 0 0 0 0 0 0 0 0 0 0 0 0 0 0 0 0 0 0 0 0 0 0 0 0 0 0 0 0 0 0 0 0 0 0 0 0 0 0 0 0 0 0 0 0 0 0 0 0 0 0 0 0 0 0 0 0 0 0 0 0 0 0 0 0 0 0 0 0 0 0 0 0 0 0 0 0 0 0 0 0 0 0 0 0 0 0 0 0 0 0 0 0 0 0 0 0 0 0 0 0 0 0 0 0 0 0 0 0 0 0 0 0 0 0 0 0 0 0 0 0 0 0 0 0 0 0 0 0 0 0 0 0 0 0 0 0 0 0 0 0 0 0 0 0 0 0 0 0 0 0 0 0 0 0 0 0 0 0 0 0 0 0 0 0 0 0 0 0 0 0 0 0 0 0 0 0 0 0 0 0 0 0 0 0 0 0 0 0 0 0 0 0 0 0 0 0 0 0 0 0 0 0 0 0 0 0 0 0 0 0 0 0 0 0 0 0 0 0 0 0 0 0 0 0 0 0 0 0 0 0 0 0 0 0 0 0 0 0 0 0 0 0 0 0 0 0 0 0 0 0 0 0 0 0 0 0 0 0 0 0 0 0 0 0 0 0 0 0 0 0 0 0 0 0 0 0 0 0 0 0 0 0 0 0 0 0 0 0 0 0 0 0 0 0 0 0 0 0 0 0 0 0 0 0 0 0 0 0 0 0 0 0 0 0 0 0 0 0 0 0 0 0 0 0 0 0 0 0 0 0 0 0 0 0 0 0 0 0 0 0 0 0 0 0 0 0 0 0 0 -0.0133983 -0.00698785 -1.51788e-18 
0.02 0.02 0.02 0.02 0.0199999 0.0199999 0.0199999 0.0199998 0.0199997 0.0199997 0.0199996 0.0199995 0.0199994 0.0199992 0.0199991 0.0199989 0.0199987 0.0199985 0.0199982 0.0199979 0.0199976 0.0199973 0.019997 0.0199966 0.0199962 0.0199958 0.0199953 0.0199948 0.0199943 0.0199937 0.0199931 0.0199924 0.0199915 0.0199905 0.0199894 0.019988 0.0199864 0.0199845 0.0199823 0.0199797 0.0199766 0.019973 0.0199689 0.0199642 0.0199589 0.0199529 0.0199461 0.0199386 0.0199303 0.0199211 0.0199111 0.0199002 0.0198883 0.0198755 0.0198617 0.0198469 0.0198311 0.0198142 0.0197962 0.0197771 0.019757 0.0197358 0.0197136 0.0196907 0.0196671 0.0196432 0.0196193 0.0195958 0.0195734 0.0195528 0.0195348 0.0195205 0.0195109 0.0195074 0.0195112 0.0195237 0.0195465 0.0195808 0.019628 0.0196891 0.0197649 0.0198559 0.0199621 0.0200828 0.0202167 0.0203617 0.0205145 0.0206706 0.0208244 0.0209692 0.0210975 0.021202 0.0212764 0.0213158 0.0213172 0.0212802 0.0212105 0.0211248 0.021044 0.0209695 0.0208553 0.0206004 0.0200324 0.0189273 0.0171294 0.0144011 0.0106996 0.00792519 0.00324511 -0.00144142 0 0 0 0 0 0 0 0 0 0 0 0 0 0 0 0 0 0 0 0 0 0 0 0 0 0 0 0 0 0 0 0 0 0 0 0 0 0 0 0 0 0 0 0 0 0 0 0 0 0 0 0 0 0 0 0 0 0 0 0 0 0 0 0 0 0 0 0 0 0 0 0 0 0 0 0 0 0 0 0 0 0 0 0 0 0 0 0 0 0 0 0 0 0 0 0 0 0 0 0 0 0 0 0 0 0 0 0 0 0 0 0 0 0 0 0 0 0 0 0 0 0 0 0 0 0 0 0 0 0 0 0 0 0 0 0 0 0 0 0 0 0 0 0 0 0 0 0 0 0 0 0 0 0 0 0 0 0 0 0 0 0 0 0 0 0 0 0 0 0 0 0 0 0 0 0 0 0 0 0 0 0 0 0 0 0 0 0 0 0 0 0 0 0 0 0 0 0 0 0 0 0 0 0 0 0 0 0 0 0 0 0 0 0 0 0 0 0 0 0 0 0 0 0 0 0 0 0 0 0 0 0 0 0 0 0 0 0 0 0 0 0 0 0 0 0 0 0 0 0 0 0 0 0 0 0 0 0 0 0 0 0 0 0 0 0 0 0 0 0 0 0 0 0 0 0 0 0 0 0 0 0 0 0 0 0 0 0 0 0 0 0 0 0 0 0 0 0 0 0 0 0 0 0 0 0 0 0 0 0 0 0 0 0 0 0 0 0 0 0 0 0 0 0 0 0 0 0 0 0 0 0 0 0 0 0 0 0 0 0 0 0 0 0 0 0 0 0 0 0 0 0 0 0 0 0 0 0 0 0 0 0 0 0 0 0 0 0 0 0 0 0 0 0 0 0 0 0 0 0 0 0 0 0 0 0 0 0 0 0 0 0 0 0 0 0 0 0 0 0 0 0 0 0 0 0 0 0 0 0 0 0 0 0 0 0 0 0 0 0 0 0 0 0 0 0 0 0 0 0 0 0 0 0 0 0 0 0 0 0 0 0 0 0 0 0 0 0 0 0 0 0 0 0 0 0 0 0 0 0 0 0 0 0 0 0 0 0 0 0 0 0 0 0 0 0 0 0 0 0 0 0 0 0 0 0 0 0 0 0 0 0 0 0 0 0 0 0 0 0 0 0 0 0 0 -0.0305432 -0.0296583 -0.0243026 -0.0173101 -0.00941256 -1.0842e-18 
0.02 0.02 0.02 0.02 0.0199999 0.0199999 0.0199999 0.0199998 0.0199998 0.0199997 0.0199996 0.0199995 0.0199994 0.0199993 0.0199992 0.019999 0.0199988 0.0199986 0.0199984 0.0199981 0.0199979 0.0199976 0.0199973 0.019997 0.0199967 0.0199963 0.019996 0.0199956 0.0199952 0.0199947 0.0199942 0.0199937 0.019993 0.0199922 0.0199913 0.0199902 0.0199889 0.0199873 0.0199854 0.0199832 0.0199805 0.0199774 0.0199738 0.0199697 0.019965 0.0199596 0.0199536 0.0199469 0.0199394 0.0199312 0.0199222 0.0199124 0.0199018 0.0198903 0.0198779 0.0198647 0.0198505 0.0198353 0.0198192 0.0198021 0.0197841 0.0197652 0.0197454 0.0197249 0.0197038 0.0196824 0.0196611 0.0196404 0.0196206 0.0196027 0.0195873 0.0195754 0.0195682 0.0195668 0.0195724 0.0195865 0.0196103 0.0196451 0.0196922 0.0197523 0.0198263 0.0199144 0.0200165 0.0201319 0.0202592 0.0203961 0.0205392 0.0206843 0.0208255 0.0209564 0.0210696 0.021158 0.0212152 0.021237 0.0212211 0.021169 0.021088 0.0209924 0.0208952 0.0207866 0.0206173 0.0203041 0.0197165 0.0186384 0.0168548 0.0142499 0.0107718 0.00642558 0.00302668 -0.0018219 -0.00869444 0 0 0 0 0 0 0 0 0 0 0 0 0 0 0 0 0 0 0 0 0 0 0 0 0 0 0 0 0 0 0 0 0 0 0 0 0 0 0 0 0 0 0 0 0 0 0 0 0 0 0 0 0 0 0 0 0 0 0 0 0 0 0 0 0 0 0 0 0 0 0 0 0 0 0 0 0 0 0 0 0 0 0 0 0 0 0 0 0 0 0 0 0 0 0 0 0 0 0 0 0 0 0 0 0 0 0 0 0 0 0 0 0 0 0 0 0 0 0 0 0 0 0 0 0 0 0 0 0 0 0 0 0 0 0 0 0 0 0 0 0 0 0 0 0 0 0 0 0 0 0 0 0 0 0 0 0 0 0 0 0 0 0 0 0 0 0 0 0 0 0 0 0 0 0 0 0 0 0 0 0 0 0 0 0 0 0 0 0 0 0 0 0 0 0 0 0 0 0 0 0 0 0 0 0 0 0 0 0 0 0 0 0 0 0 0 0 0 0 0 0 0 0 0 0 0 0 0 0 0 0 0 0 0 0 0 0 0 0 0 0 0 0 0 0 0 0 0 0 0 0 0 0 0 0 0 0 0 0 0 0 0 0 0 0 0 0 0 0 0 0 0 0 0 0 0 0 0 0 0 0 0 0 0 0 0 0 0 0 0 0 0 0 0 0 0 0 0 0 0 0 0 0 0 0 0 0 0 0 0 0 0 0 0 0 0 0 0 0 0 0 0 0 0 0 0 0 0 0 0 0 0 0 0 0 0 0 0 0 0 0 0 0 0 0 0 0 0 0 0 0 0 0 0 0 0 0 0 0 0 0 0 0 0 0 -0.046959 -0.0493213 -0.0533539 -0.0561321 -0.0573119 -0.0574403 -0.0569538 -0.0560968 -0.0549859 -0.0536963 -0.0523364 -0.0509824 -0.0496866 -0.0485006 -0.0475226 -0.0487129 0 0 0 0 0 0 0 0 0 0 0 0 0 0 0 0 0 0 0 0 0 0 0 0 0 0 -0.0415001 -0.0444931 -0.0454135 -0.0456887 -0.0457136 -0.04563 -0.0454964 -0.0453359 -0.0451582 -0.0449689 -0.0447725 -0.044573 -0.0443736 -0.044177 -0.0439859 -0.0438028 -0.0436296 -0.0434681 -0.0433192 -0.0431832 -0.0430602 -0.0429497 -0.0428516 -0.0427653 -0.0426906 -0.0426269 -0.0425738 -0.0425305 -0.0424964 -0.0424706 -0.0424523 -0.0424407 -0.0424351 -0.0424348 -0.0424396 -0.0424493 -0.0424643 -0.0424764 -0.0425071 -0.0425477 -0.0425966 -0.0426456 -0.0426985 -0.0427648 -0.0428379 -0.0429162 -0.0429985 -0.0430831 -0.0431688 -0.0432545 -0.0433396 -0.0434234 -0.0435056 -0.0435861 -0.0436644 -0.0437404 -0.0438139 -0.0438845 -0.0439521 -0.0440161 -0.0440758 -0.0441305 -0.0441791 -0.0442206 -0.0442543 -0.0442796 -0.0442962 -0.0443044 -0.0443048 -0.0442984 -0.0442863 -0.0442699 -0.0442503 -0.0442284 -0.0442051 -0.0441805 -0.0441547 -0.0441271 -0.0440968 -0.0440626 -0.0440233 -0.0439773 -0.0439232 -0.0438598 -0.0437859 -0.0437005 -0.0436029 -0.043492 -0.0433661 -0.0432214 -0.0430493 -0.0428263 -0.0424714 -0.0417806 -0.0405796 -0.0392184 -0.0373248 -0.034343 -0.0306627 -0.0253821 -0.0187799 -0.0106704 -2.1684e-19 
0.02 0.02 0.02 0.02 0.0199999 0.0199999 0.0199999 0.0199998 0.0199998 0.0199997 0.0199997 0.0199996 0.0199995 0.0199994 0.0199992 0.0199991 0.0199989 0.0199988 0.0199986 0.0199984 0.0199981 0.0199979 0.0199977 0.0199974 0.0199972 0.0199969 0.0199967 0.0199964 0.0199961 0.0199958 0.0199955 0.0199951 0.0199946 0.0199941 0.0199934 0.0199926 0.0199915 0.0199903 0.0199888 0.0199869 0.0199847 0.0199821 0.0199791 0.0199755 0.0199715 0.0199668 0.0199616 0.0199558 0.0199493 0.0199421 0.0199343 0.0199257 0.0199164 0.0199064 0.0198956 0.0198841 0.0198717 0.0198586 0.0198446 0.0198299 0.0198143 0.0197979 0.0197809 0.0197632 0.0197451 0.0197268 0.0197087 0.019691 0.0196745 0.0196596 0.0196472 0.0196383 0.0196338 0.0196348 0.0196426 0.0196584 0.0196834 0.0197187 0.0197655 0.0198245 0.0198964 0.0199813 0.0200789 0.0201884 0.0203083 0.0204362 0.0205687 0.0207015 0.0208287 0.0209439 0.0210397 0.0211089 0.0211453 0.0211448 0.0211059 0.021031 0.0209277 0.0208074 0.0206779 0.0205248 0.0202993 0.0199215 0.0192881 0.0182297 0.0165298 0.014071 0.0108001 0.00660402 0.00157906 -0.00394346 -0.00986061 0 0 0 0 0 0 0 0 0 0 0 0 0 0 0 0 0 0 0 0 0 0 0 0 0 0 0 0 0 0 0 0 0 0 0 0 0 0 0 0 0 0 0 0 0 0 0 0 0 0 0 0 0 0 0 0 0 0 0 0 0 0 0 0 0 0 0 0 0 0 0 0 0 0 0 0 0 0 0 0 0 0 0 0 0 0 0 0 0 0 0 0 0 0 0 0 0 0 0 0 0 0 0 0 0 0 0 0 0 0 0 0 0 0 0 0 0 0 0 0 0 0 0 0 0 0 0 0 0 0 0 0 0 0 0 0 0 0 0 0 0 0 0 0 0 0 0 0 0 0 0 0 0 0 0 0 0 0 0 0 0 0 0 0 0 0 0 0 0 0 0 0 0 0 0 0 0 0 0 0 0 0 0 0 0 0 0 0 0 0 0 0 0 0 0 0 0 0 0 0 0 0 0 0 0 0 0 0 0 0 0 0 0 0 0 0 0 0 0 0 0 0 0 0 0 0 0 0 0 0 0 0 0 0 0 0 0 0 0 0 0 0 0 0 0 0 0 0 0 0 0 0 0 0 0 0 0 0 0 0 0 0 0 0 0 0 0 0 0 0 0 0 0 0 0 0 0 0 0 0 0 0 0 0 0 0 0 0 0 0 0 0 0 0 0 0 0 0 0 0 0 0 0 0 0 0 0 0 0 0 0 0 0 0 0 0 0 0 0 0 0 0 0 0 0 0 0 0 0 0 0 0 0 0 0 0 0 0 0 0 0 0 0 0 0 0 0 0 0 0 0 0 0 0 0 0 0 0 0 0 0 0 0 0 -0.0412092 -0.0466167 -0.0501719 -0.0534014 -0.0556839 -0.0567986 -0.0569102 -0.0564926 -0.0557117 -0.0546753 -0.0534503 -0.0521459 -0.0508444 -0.0495962 -0.0484695 -0.0476085 -0.0475019 -0.0477064 -0.0466753 -0.0453641 -0.0445226 -0.0439787 -0.0436431 -0.0434479 -0.0433294 -0.0432384 -0.0431663 -0.0432436 -0.0434356 -0.0436819 -0.0438814 -0.0440549 -0.0442703 -0.0445279 -0.0448008 -0.0450778 -0.0453459 -0.0455971 -0.0458277 -0.0460371 -0.0462238 -0.046296 -0.0460174 -0.0452007 -0.0453632 -0.0456126 -0.045721 -0.0457102 -0.0456251 -0.0454965 -0.0453405 -0.0451662 -0.0449791 -0.0447842 -0.0445856 -0.0443867 -0.0441905 -0.0439997 -0.0438166 -0.0436432 -0.0434812 -0.0433316 -0.0431947 -0.0430708 -0.0429596 -0.0428607 -0.0427737 -0.0426983 -0.042634 -0.0425802 -0.0425363 -0.0425015 -0.042475 -0.042456 -0.0424437 -0.0424374 -0.0424365 -0.0424408 -0.0424501 -0.0424646 -0.0424848 -0.0425111 -0.0425443 -0.0425849 -0.042633 -0.0426885 -0.0427512 -0.04282 -0.0428941 -0.0429722 -0.0430532 -0.0431362 -0.0432204 -0.043305 -0.0433895 -0.0434735 -0.0435563 -0.0436376 -0.0437168 -0.0437935 -0.0438671 -0.0439373 -0.0440035 -0.044065 -0.0441211 -0.0441708 -0.0442134 -0.044248 -0.0442743 -0.0442921 -0.0443016 -0.0443035 -0.0442987 -0.0442882 -0.0442733 -0.0442551 -0.0442346 -0.0442123 -0.0441886 -0.0441634 -0.0441361 -0.0441061 -0.0440721 -0.0440328 -0.043987 -0.0439332 -0.0438702 -0.0437969 -0.0437126 -0.0436164 -0.0435074 -0.0433837 -0.0432404 -0.0430646 -0.0428187 -0.0424219 -0.0417546 -0.0407361 -0.0393638 -0.0374189 -0.0346176 -0.0309041 -0.0259383 -0.0196366 -0.0114224 2.38524e-18 
0.02 0.02 0.02 0.02 0.0199999 0.0199999 0.0199999 0.0199998 0.0199998 0.0199997 0.0199997 0.0199996 0.0199995 0.0199994 0.0199993 0.0199992 0.0199991 0.0199989 0.0199988 0.0199986 0.0199984 0.0199983 0.0199981 0.0199979 0.0199978 0.0199976 0.0199974 0.0199973 0.0199971 0.019997 0.0199968 0.0199966 0.0199963 0.019996 0.0199955 0.019995 0.0199943 0.0199934 0.0199922 0.0199908 0.0199891 0.019987 0.0199845 0.0199816 0.0199783 0.0199744 0.01997 0.0199651 0.0199597 0.0199536 0.019947 0.0199398 0.019932 0.0199236 0.0199145 0.0199049 0.0198946 0.0198836 0.019872 0.0198598 0.019847 0.0198335 0.0198196 0.0198052 0.0197904 0.0197756 0.019761 0.019747 0.0197341 0.0197228 0.0197139 0.0197082 0.0197067 0.0197105 0.0197206 0.0197382 0.0197644 0.0198002 0.0198466 0.0199043 0.0199737 0.0200549 0.0201474 0.0202504 0.0203621 0.0204802 0.0206011 0.0207203 0.0208321 0.0209298 0.0210061 0.0210535 0.021066 0.0210392 0.0209724 0.0208683 0.0207333 0.0205759 0.0203998 0.0201916 0.0199062 0.0194699 0.0187845 0.0177153 0.0160738 0.0137177 0.0105371 0.00636852 0.000912142 -0.00540576 -0.0115357 -0.0142579 0 0 0 0 0 0 0 0 0 0 0 0 0 0 0 0 0 0 0 0 0 0 0 0 0 0 0 0 0 0 0 0 0 0 0 0 0 0 0 0 0 0 0 0 0 0 0 0 0 0 0 0 0 0 0 0 0 0 0 0 0 0 0 0 0 0 0 0 0 0 0 0 0 0 0 0 0 0 0 0 0 0 0 0 0 0 0 0 0 0 0 0 0 0 0 0 0 0 0 0 0 0 0 0 0 0 0 0 0 0 0 0 0 0 0 0 0 0 0 0 0 0 0 0 0 0 0 0 0 0 0 0 0 0 0 0 0 0 0 0 0 0 0 0 0 0 0 0 0 0 0 0 0 0 0 0 0 0 0 0 0 0 0 0 0 0 0 0 0 0 0 0 0 0 0 0 0 0 0 0 0 0 0 0 0 0 0 0 0 0 0 0 0 0 0 0 0 -0.0676956 -0.0694106 -0.0679296 -0.0663772 -0.0651993 -0.064543 -0.0644053 -0.0646897 -0.0652686 -0.0661021 -0.074406 0 0 0 0 0 0 0 0 0 0 0 0 0 0 0 0 0 0 0 0 0 0 0 0 0 0 0 0 0 0 0 0 0 0 0 0 0 0 0 0 0 0 0 0 0 0 0 0 0 0 0 0 0 0 0 0 0 0 0 0 0 0 0 0 0 0 0 0 0 0 0 0 0 0 0 0 0 0 0 0 0 0 0 0 0 0 0 0 0 0 0 0 0 0 0 0 0 0 0 0 0 0 0 0 0 0 0 0 0 0 0 0 0 0 0 0 0 0 0 0 0 0 0 0 0 0 0 0 0 0 0 0 0 0 0 0 0 0 0 0 0 0 0 0 0 0 0 0 0 0 0 0 0 -0.0421069 -0.0443319 -0.0457705 -0.048321 -0.050892 -0.0532078 -0.0549763 -0.0559237 -0.0560398 -0.0556981 -0.0550408 -0.0541056 -0.0529883 -0.051788 -0.050584 -0.0494251 -0.0484082 -0.0477055 -0.0474004 -0.0472863 -0.0464997 -0.0453357 -0.0445304 -0.0439835 -0.0436319 -0.043414 -0.0432813 -0.0432071 -0.0431986 -0.0433011 -0.0434894 -0.0437304 -0.0439746 -0.0441816 -0.044414 -0.0446697 -0.0449343 -0.0451982 -0.0454516 -0.0456872 -0.0459018 -0.0460894 -0.0462146 -0.0461845 -0.0459361 -0.0455729 -0.0455706 -0.0456585 -0.0457005 -0.0456735 -0.0455903 -0.0454674 -0.0453168 -0.0451464 -0.0449623 -0.0447695 -0.0445723 -0.0443745 -0.0441791 -0.0439888 -0.0438062 -0.043633 -0.0434709 -0.0433209 -0.0431836 -0.043059 -0.042947 -0.0428474 -0.0427599 -0.0426839 -0.0426191 -0.0425649 -0.0425206 -0.0424856 -0.0424591 -0.0424402 -0.0424283 -0.0424227 -0.0424227 -0.0424282 -0.0424389 -0.042455 -0.0424766 -0.0425043 -0.0425384 -0.0425793 -0.042627 -0.0426815 -0.0427423 -0.0428087 -0.0428799 -0.042955 -0.0430333 -0.043114 -0.0431966 -0.0432804 -0.0433651 -0.0434499 -0.0435344 -0.0436178 -0.0436995 -0.0437788 -0.0438551 -0.0439279 -0.0439964 -0.04406 -0.044118 -0.0441694 -0.0442136 -0.0442499 -0.0442778 -0.0442972 -0.0443084 -0.044312 -0.0443088 -0.0442998 -0.0442861 -0.0442688 -0.0442487 -0.0442264 -0.0442022 -0.044176 -0.0441475 -0.0441157 -0.0440797 -0.0440383 -0.0439902 -0.0439342 -0.0438691 -0.043794 -0.0437078 -0.04361 -0.0434994 -0.0433731 -0.0432237 -0.0430308 -0.0427507 -0.0423154 -0.0416463 -0.0406721 -0.0393024 -0.0373641 -0.0346607 -0.0310563 -0.0263341 -0.0202113 -0.0119041 -6.50521e-19 
0.02 0.02 0.02 0.02 0.0199999 0.0199999 0.0199999 0.0199999 0.0199998 0.0199998 0.0199997 0.0199997 0.0199996 0.0199995 0.0199994 0.0199993 0.0199992 0.0199991 0.019999 0.0199989 0.0199987 0.0199986 0.0199985 0.0199984 0.0199983 0.0199983 0.0199982 0.0199982 0.0199981 0.0199981 0.0199981 0.0199981 0.019998 0.0199979 0.0199977 0.0199975 0.0199971 0.0199965 0.0199958 0.0199948 0.0199936 0.0199921 0.0199902 0.019988 0.0199854 0.0199823 0.0199789 0.019975 0.0199706 0.0199658 0.0199604 0.0199547 0.0199484 0.0199417 0.0199345 0.0199268 0.0199187 0.0199101 0.0199011 0.0198916 0.0198817 0.0198714 0.0198608 0.01985 0.019839 0.019828 0.0198174 0.0198073 0.0197984 0.0197911 0.019786 0.019784 0.0197859 0.0197926 0.0198052 0.0198246 0.019852 0.0198882 0.019934 0.01999 0.0200566 0.0201335 0.0202204 0.0203161 0.0204189 0.0205261 0.0206343 0.0207388 0.0208338 0.0209125 0.0209675 0.0209913 0.0209776 0.0209221 0.0208238 0.020685 0.0205108 0.0203063 0.0200722 0.0197965 0.019444 0.0189476 0.0182147 0.0171212 0.015509 0.0132091 0.0100978 0.00600093 0.00073179 -0.00608923 -0.0135317 -0.0173571 0 0 0 0 0 0 0 0 0 0 0 0 0 0 0 0 0 0 0 0 0 0 0 0 0 0 0 0 0 0 0 0 0 0 0 0 0 0 0 0 0 0 0 0 0 0 0 0 0 0 0 0 0 0 0 0 0 0 0 0 0 0 0 0 0 0 0 0 0 0 0 0 0 0 0 0 0 0 0 0 0 0 0 0 0 0 0 0 0 0 0 0 0 0 0 0 0 0 0 0 0 0 0 0 0 0 0 0 0 0 0 0 0 0 0 0 0 0 0 0 0 0 0 0 0 0 0 0 0 0 0 0 0 0 0 0 0 0 0 0 0 0 0 0 0 0 0 0 0 0 0 0 0 0 0 0 0 0 0 0 0 0 0 0 0 0 0 0 0 0 0 0 0 0 0 0 0 0 0 0 0 0 0 0 0 0 0 0 0 0 -0.08082 -0.0853139 -0.0845965 -0.0814336 -0.0784944 -0.0752957 -0.0723932 -0.0706684 -0.0696393 -0.0681001 -0.0665999 -0.0654576 -0.0647994 -0.0646277 -0.0648625 -0.0653868 -0.066145 -0.0679125 -0.0699839 -0.0711002 -0.0717982 -0.0728731 -0.07451 -0.0761184 -0.0772651 -0.0773649 -0.0772582 -0.0786432 -0.0818974 -0.0950571 0 0 0 0 0 0 0 0 0 0 0 0 0 0 0 0 0 0 0 0 0 0 0 0 0 0 0 0 0 0 0 0 0 0 0 0 0 0 0 0 0 0 0 0 0 0 0 0 0 0 0 0 0 0 0 0 0 0 0 0 0 0 0 0 0 0 0 0 0 0 0 0 0 0 0 0 0 0 0 0 0 0 0 0 0 0 0 0 0 0 0 0 0 0 0 0 0 0 0 0 0 0 0 0 0 0 0 0 0 0 0 0 0 0 0 0 0 0 0 0 0 0 0 0 0 0 0 0 0 0 0 0 0 0 0 0 0 0 0 0 -0.0426855 -0.0427518 -0.0449949 -0.0475848 -0.0493178 -0.0510492 -0.0525969 -0.0539315 -0.0546656 -0.0548347 -0.0546123 -0.0540904 -0.0532929 -0.052324 -0.0512707 -0.0502018 -0.0491665 -0.0482643 -0.0476171 -0.0472195 -0.0468472 -0.0461624 -0.0453135 -0.0446179 -0.0441083 -0.0437585 -0.0435236 -0.0433713 -0.0432934 -0.0433027 -0.0434072 -0.043589 -0.0438212 -0.0440681 -0.0443026 -0.0445338 -0.0447747 -0.0450225 -0.0452682 -0.045503 -0.0457205 -0.0459152 -0.0460705 -0.0461427 -0.0460757 -0.0458793 -0.0456689 -0.0456194 -0.0456397 -0.0456478 -0.0456131 -0.0455337 -0.0454176 -0.0452731 -0.0451077 -0.0449274 -0.0447376 -0.0445428 -0.0443469 -0.044153 -0.043964 -0.0437823 -0.0436098 -0.043448 -0.043298 -0.0431604 -0.0430353 -0.0429228 -0.0428225 -0.0427343 -0.0426576 -0.0425922 -0.0425374 -0.0424927 -0.0424575 -0.0424309 -0.0424124 -0.0424011 -0.0423964 -0.0423978 -0.0424049 -0.0424175 -0.0424356 -0.0424592 -0.0424886 -0.0425241 -0.0425657 -0.0426136 -0.0426674 -0.0427269 -0.0427915 -0.0428606 -0.0429335 -0.0430097 -0.0430887 -0.04317 -0.0432533 -0.0433381 -0.0434238 -0.0435097 -0.0435951 -0.0436791 -0.043761 -0.0438401 -0.0439156 -0.043987 -0.0440534 -0.0441141 -0.0441683 -0.0442153 -0.0442543 -0.044285 -0.0443073 -0.0443213 -0.0443275 -0.0443266 -0.0443196 -0.0443074 -0.0442909 -0.044271 -0.0442482 -0.0442229 -0.0441949 -0.0441638 -0.0441292 -0.0440899 -0.044045 -0.0439934 -0.0439339 -0.0438654 -0.043787 -0.0436979 -0.0435971 -0.0434831 -0.0433515 -0.0431911 -0.0429773 -0.0426679 -0.0422069 -0.0415307 -0.0405641 -0.0391992 -0.0372879 -0.0346712 -0.0311998 -0.0266548 -0.0206292 -0.0122319 -1.30104e-18 