# vtk DataFile Version 2.0
iteration 2511
ASCII

DATASET STRUCTURED_POINTS
DIMENSIONS 621 64 1
ORIGIN 0 0 0
SPACING 0.00161031 0.00161031 0.00161031

POINT_DATA 39744
SCALARS P float 1
LOOKUP_TABLE default
0 0 0 0 0 0 0 0 0 0 0 0 0 0 0 0 0 0 0 0 0 0 0 0 0 0 0 0 0 0 0 0 0 0 0 0 0 0 0 0 0 0 0 0 0 0 0 0 0 0 0 0 0 0 0 0 0 0 0 0 0 0 0 0 0 0 0 0 0 0 0 0 0 0 0 0 0 0 0 0 0 0 0 0 0 0 0 0 0 0 0 0 0 0 0 0 0 0 0 0 0 0 0 0 0 0 0 0 0 0 0 0 0 0 0 0 0 0 0 0 0 0 0 0 0 0 0 0 0 0 0 0 0 0 0 0 0 0 0 0 0 0 0 0 0 0 0 0 0 0 0 0 0 0 0 0 0 0 0 0 0 0 0 0 0 0 0 0 0 0 0 0 0 0 0 0 0 0 0 0 0 0 0 0 0 0 0 0 0 0 0 0 0 0 0 0 0 0 0 0 0 0 0 0 0 0 0 0 0 0 0 0 0 0 0 0 0 0 0 0 0 0 0 0 0 0 0 0 0 0 0 0 0 0 0 0 0 0 0 0 0 0 0 0 0 0 0 0 0 0 0 0 0 0 0 0 0 0 0 0 0 0 0 0 0 0 0 0 0 0 0 0 0 0 0 0 0 0 0 0 0 0 0 0 0 0 0 0 0 0 0 0 0 0 0 0 0 0 0 0 0 0 0 0 0 0 0 0 0 0 0 0 0 0 0 0 0 0 0 0 0 0 0 0 0 0 0 0 0 0 0 0 0 0 0 0 0 0 0 0 0 0 0 0 0 0 0 0 0 0 0 0 0 0 0 0 0 0 0 0 0 0 0 0 0 0 0 0 0 0 0 0 0 0 0 0 0 0 0 0 0 0 0 0 0 0 0 0 0 0 0 0 0 0 0 0 0 0 0 0 0 0 0 0 0 0 0 0 0 0 0 0 0 0 0 0 0 0 0 0 0 0 0 0 0 0 0 0 0 0 0 0 0 0 0 0 0 0 0 0 0 0 0 0 0 0 0 0 0 0 0 0 0 0 0 0 0 0 0 0 0 0 0 0 0 0 0 0 0 0 0 0 0 0 0 0 0 0 0 0 0 0 0 0 0 0 0 0 0 0 0 0 0 0 0 0 0 0 0 0 0 0 0 0 0 0 0 0 0 0 0 0 0 0 0 0 0 0 0 0 0 0 0 0 0 0 0 0 0 0 0 0 0 0 0 0 0 0 0 0 0 0 0 0 0 0 0 0 0 0 0 0 0 0 0 0 0 0 0 0 0 0 0 0 0 0 0 0 0 0 0 0 0 0 0 0 0 0 0 0 0 0 0 0 0 0 0 0 0 0 0 0 0 0 0 0 0 0 0 0 0 0 0 0 0 0 0 0 0 0 0 0 0 0 0 0 0 0 0 0 0 
0.018901 0.0190092 0.0190061 0.0190539 0.0191037 0.019155 0.0192073 0.0192605 0.0193144 0.0193689 0.019424 0.0194796 0.0195356 0.019592 0.0196486 0.0197055 0.0197623 0.0198188 0.0198738 0.0199253 0.0199694 0.0200024 0.0200417 0.0200872 0.0201351 0.0201843 0.0202342 0.0202844 0.0203348 0.0203851 0.0204353 0.0204852 0.0205347 0.0205838 0.0206324 0.0206804 0.0207277 0.0207744 0.0208204 0.0208655 0.0209099 0.0209534 0.020996 0.0210378 0.0210785 0.0211184 0.0211572 0.021195 0.0212317 0.0212674 0.021302 0.0213354 0.0213677 0.0213989 0.0214289 0.0214577 0.0214852 0.0215116 0.0215367 0.0215606 0.0215831 0.0216044 0.0216245 0.0216432 0.0216606 0.0216767 0.0216915 0.0217049 0.021717 0.0217278 0.0217373 0.0217454 0.0217523 0.0217577 0.0217619 0.0217648 0.0217663 0.0217666 0.0217655 0.0217632 0.0217596 0.0217548 0.0217487 0.0217414 0.0217329 0.0217232 0.0217124 0.0217004 0.0216873 0.0216731 0.0216578 0.0216415 0.0216241 0.0216058 0.0215865 0.0215663 0.0215452 0.0215233 0.0215006 0.021477 0.0214527 0.0214278 0.0214021 0.0213759 0.021349 0.0213216 0.0212937 0.0212654 0.0212367 0.0212076 0.0211782 0.0211485 0.0211186 0.0210885 0.0210583 0.021028 0.0209976 0.0209673 0.0209369 0.0209067 0.0208766 0.0208467 0.020817 0.0207875 0.0207584 0.0207295 0.0207011 0.020673 0.0206453 0.0206182 0.0205915 0.0205653 0.0205397 0.0205147 0.0204902 0.0204664 0.0204432 0.0204206 0.0203987 0.0203775 0.0203569 0.0203371 0.0203179 0.0202995 0.0202817 0.0202647 0.0202483 0.0202326 0.0202177 0.0202034 0.0201897 0.0201768 0.0201644 0.0201528 0.0201417 0.0201312 0.0201214 0.020112 0.0201033 0.0200951 0.0200874 0.0200802 0.0200734 0.0200672 0.0200613 0.0200559 0.0200509 0.0200462 0.0200419 0.0200379 0.0200343 0.0200309 0.0200278 0.020025 0.0200224 0.0200201 0.020018 0.020016 0.0200143 0.0200127 0.0200112 0.02001 0.0200088 0.0200078 0.0200068 0.020006 0.0200052 0.0200046 0.020004 0.0200035 0.020003 0.0200026 0.0200023 0.020002 0.0200017 0.0200014 0.0200012 0.0200011 0.0200009 0.0200008 0.0200007 0.0200006 0.0200005 0.0200004 0.0200003 0.0200003 0.0200002 0.0200002 0.0200002 0.0200001 0.0200001 0.0200001 0.0200001 0.0200001 0.02 0.02 0.02 0.02 0.02 0.02 0.02 0.02 0.02 0.02 0.02 0.02 0.02 0.02 0.02 0.02 0.02 0.02 0.02 0.02 0.02 0.02 0.02 0.02 0.02 0.02 0.0200001 0.0200001 0.0200001 0.0200001 0.0200001 0.0200001 0.0200001 0.0200001 0.0200001 0.0200002 0.0200002 0.0200002 0.0200002 0.0200002 0.0200003 0.0200003 0.0200003 0.0200004 0.0200004 0.0200004 0.0200005 0.0200005 0.0200006 0.0200006 0.0200007 0.0200007 0.0200008 0.0200009 0.020001 0.020001 0.0200011 0.0200012 0.0200013 0.0200014 0.0200015 0.0200016 0.0200017 0.0200019 0.020002 0.0200022 0.0200023 0.0200025 0.0200026 0.0200028 0.020003 0.0200032 0.0200034 0.0200036 0.0200038 0.020004 0.0200043 0.0200045 0.0200048 0.020005 0.0200053 0.0200056 0.0200059 0.0200062 0.0200065 0.0200068 0.0200071 0.0200074 0.0200077 0.0200081 0.0200084 0.0200087 0.0200091 0.0200094 0.0200098 0.0200101 0.0200105 0.0200108 0.0200112 0.0200115 0.0200118 0.0200121 0.0200124 0.0200127 0.020013 0.0200133 0.0200135 0.0200138 0.020014 0.0200142 0.0200143 0.0200145 0.0200146 0.0200146 0.0200147 0.0200147 0.0200146 0.0200145 0.0200144 0.0200142 0.0200139 0.0200136 0.0200133 0.0200129 0.0200124 0.0200118 0.0200112 0.0200105 0.0200097 0.0200088 0.0200079 0.0200068 0.0200057 0.0200045 0.0200032 0.0200018 0.0200002 0.0199986 0.0199969 0.019995 0.0199931 0.019991 0.0199888 0.0199865 0.0199841 0.0199816 0.0199789 0.0199761 0.0199732 0.0199701 0.019967 0.0199637 0.0199603 0.0199567 0.019953 0.0199492 0.0199453 0.0199413 0.0199371 0.0199328 0.0199284 0.0199239 0.0199193 0.0199145 0.0199097 0.0199047 0.0198997 0.0198945 0.0198893 0.0198839 0.0198785 0.019873 0.0198675 0.0198619 0.0198562 0.0198504 0.0198446 0.0198388 0.0198329 0.019827 0.019821 0.0198151 0.0198091 0.0198031 0.0197971 0.0197911 0.0197852 0.0197792 0.0197733 0.0197674 0.0197616 0.0197558 0.01975 0.0197443 0.0197387 0.0197331 0.0197276 0.0197222 0.0197169 0.0197116 0.0197065 0.0197015 0.0196965 0.0196917 0.019687 0.0196824 0.0196779 0.0196735 0.0196692 0.0196651 0.0196613 0.0196575 0.019654 0.0196508 0.0196477 0.0196448 0.0196421 0.0196396 0.0196373 0.0196352 0.0196332 0.0196315 0.01963 0.0196286 0.0196275 0.0196266 0.0196259 0.0196254 0.019625 0.0196249 0.0196251 0.0196254 0.0196259 0.0196266 0.0196276 0.0196287 0.01963 0.0196316 0.0196333 0.0196353 0.0196374 0.0196398 0.0196423 0.019645 0.019648 0.0196511 0.0196543 0.0196578 0.0196615 0.0196653 0.0196693 0.0196734 0.0196778 0.0196822 0.0196869 0.0196917 0.0196966 0.0197017 0.0197069 0.0197122 0.0197177 0.0197232 0.0197289 0.0197347 0.0197406 0.0197466 0.0197526 0.0197588 0.019765 0.0197713 0.0197776 0.019784 0.0197904 0.0197969 0.0198034 0.0198099 0.0198165 0.019823 0.0198296 0.0198362 0.0198427 0.0198493 0.0198558 0.0198624 0.0198689 0.0198754 0.0198818 0.0198883 0.0198947 0.0199011 0.0199075 0.0199139 0.0199203 0.0199266 0.019933 0.0199394 0.0199458 0.0199522 0.0199586 0.0199652 0.0199718 0.0199785 0.0199853 0.0199923 0.0199994 0.0200067 0.0200143 0.0200221 0.0200301 0.0200385 0.0200472 0.0200562 0.0200656 0.0200754 0.0200857 0.0200963 0.0201075 0.0201191 0.0201311 0.0201437 0.0201567 0.0201701 0.020184 0.0201983 0.0202131 0.0202281 0.0202435 0.0202592 0.0202751 0.0202912 0.0203074 0.0203235 0.0203396 0.0203556 0.0203713 0.0203866 0.0204015 0.0204158 0.0204295 0.0204424 0.0204545 0.0204656 0.0204758 0.0204848 0.0204927 0.0204993 0.0205046 0.0205085 0.020511 0.0205118 0.020511 0.0205084 0.0205038 0.0204971 0.0204881 0.0204765 0.020462 0.0204442 0.0204226 0.0203966 0.0203653 0.0203277 0.0202826 0.0202282 0.0201626 0.0200832 0.0199869 0.01987 0.019728 0.0195557 0.0193469 0.0190944 0.0187912 0.0184302 0.0180056 0.0175141 0.0169549 0.0163282 0.0156351 0.0148679 0.0140098 0.0130489 0.0119797 0.0108017 0.00950882 0.00809424 0.00656792 0.00496575 0.00330927 0.00170679 -2.97744e-07 -0.00118198 0 0 0 0 0 0 0 0 0 0 0 0 0 0 0 
0.018901 0.0189723 0.019008 0.0190549 0.0191043 0.0191554 0.0192076 0.0192607 0.0193145 0.019369 0.0194241 0.0194796 0.0195356 0.0195919 0.0196485 0.0197052 0.0197616 0.019817 0.0198704 0.0199199 0.0199647 0.0200053 0.0200483 0.0200941 0.0201419 0.0201909 0.0202406 0.0202907 0.0203409 0.0203911 0.0204412 0.020491 0.0205404 0.0205893 0.0206378 0.0206857 0.0207329 0.0207795 0.0208253 0.0208704 0.0209146 0.020958 0.0210005 0.0210421 0.0210828 0.0211225 0.0211612 0.0211988 0.0212355 0.021271 0.0213055 0.0213388 0.021371 0.021402 0.0214319 0.0214605 0.021488 0.0215142 0.0215392 0.0215629 0.0215854 0.0216066 0.0216264 0.021645 0.0216623 0.0216783 0.0216929 0.0217062 0.0217182 0.0217289 0.0217383 0.0217463 0.021753 0.0217583 0.0217624 0.0217651 0.0217665 0.0217666 0.0217655 0.021763 0.0217593 0.0217543 0.0217481 0.0217407 0.0217321 0.0217223 0.0217113 0.0216992 0.021686 0.0216717 0.0216563 0.0216398 0.0216224 0.021604 0.0215846 0.0215643 0.0215431 0.0215211 0.0214982 0.0214746 0.0214502 0.0214251 0.0213994 0.0213731 0.0213462 0.0213187 0.0212908 0.0212624 0.0212336 0.0212044 0.021175 0.0211453 0.0211153 0.0210852 0.0210549 0.0210246 0.0209942 0.0209638 0.0209335 0.0209033 0.0208732 0.0208433 0.0208136 0.0207842 0.020755 0.0207262 0.0206978 0.0206697 0.0206421 0.020615 0.0205884 0.0205623 0.0205367 0.0205117 0.0204873 0.0204636 0.0204404 0.020418 0.0203961 0.020375 0.0203545 0.0203347 0.0203157 0.0202973 0.0202796 0.0202627 0.0202464 0.0202308 0.0202159 0.0202017 0.0201881 0.0201752 0.020163 0.0201514 0.0201404 0.02013 0.0201202 0.020111 0.0201023 0.0200941 0.0200865 0.0200793 0.0200727 0.0200664 0.0200607 0.0200553 0.0200503 0.0200457 0.0200414 0.0200375 0.0200339 0.0200305 0.0200275 0.0200247 0.0200222 0.0200198 0.0200177 0.0200158 0.0200141 0.0200125 0.0200111 0.0200098 0.0200087 0.0200076 0.0200067 0.0200059 0.0200052 0.0200045 0.0200039 0.0200034 0.020003 0.0200026 0.0200022 0.0200019 0.0200017 0.0200014 0.0200012 0.020001 0.0200009 0.0200008 0.0200006 0.0200005 0.0200005 0.0200004 0.0200003 0.0200003 0.0200002 0.0200002 0.0200002 0.0200001 0.0200001 0.0200001 0.0200001 0.0200001 0.02 0.02 0.02 0.02 0.02 0.02 0.02 0.02 0.02 0.02 0.02 0.02 0.02 0.02 0.02 0.02 0.02 0.02 0.02 0.02 0.02 0.02 0.02 0.02 0.02 0.02 0.0200001 0.0200001 0.0200001 0.0200001 0.0200001 0.0200001 0.0200001 0.0200001 0.0200001 0.0200002 0.0200002 0.0200002 0.0200002 0.0200002 0.0200003 0.0200003 0.0200003 0.0200004 0.0200004 0.0200004 0.0200005 0.0200005 0.0200006 0.0200006 0.0200007 0.0200007 0.0200008 0.0200009 0.0200009 0.020001 0.0200011 0.0200012 0.0200013 0.0200014 0.0200015 0.0200016 0.0200017 0.0200019 0.020002 0.0200021 0.0200023 0.0200024 0.0200026 0.0200028 0.020003 0.0200032 0.0200034 0.0200036 0.0200038 0.020004 0.0200042 0.0200045 0.0200047 0.020005 0.0200053 0.0200055 0.0200058 0.0200061 0.0200064 0.0200067 0.0200071 0.0200074 0.0200077 0.020008 0.0200084 0.0200087 0.0200091 0.0200094 0.0200098 0.0200101 0.0200105 0.0200108 0.0200111 0.0200115 0.0200118 0.0200121 0.0200124 0.0200127 0.020013 0.0200133 0.0200135 0.0200138 0.020014 0.0200142 0.0200143 0.0200145 0.0200146 0.0200146 0.0200147 0.0200147 0.0200146 0.0200146 0.0200144 0.0200142 0.020014 0.0200137 0.0200134 0.0200129 0.0200125 0.0200119 0.0200113 0.0200106 0.0200098 0.020009 0.0200081 0.020007 0.0200059 0.0200047 0.0200034 0.020002 0.0200005 0.0199989 0.0199972 0.0199954 0.0199935 0.0199914 0.0199892 0.019987 0.0199846 0.019982 0.0199794 0.0199766 0.0199738 0.0199707 0.0199676 0.0199643 0.0199609 0.0199574 0.0199538 0.01995 0.0199461 0.0199421 0.019938 0.0199337 0.0199293 0.0199249 0.0199203 0.0199155 0.0199107 0.0199058 0.0199008 0.0198957 0.0198905 0.0198852 0.0198798 0.0198743 0.0198688 0.0198632 0.0198575 0.0198518 0.019846 0.0198402 0.0198343 0.0198284 0.0198225 0.0198166 0.0198106 0.0198046 0.0197987 0.0197927 0.0197867 0.0197808 0.0197749 0.019769 0.0197631 0.0197573 0.0197515 0.0197458 0.0197401 0.0197346 0.019729 0.0197236 0.0197182 0.0197129 0.0197078 0.0197027 0.0196977 0.0196928 0.0196881 0.0196835 0.019679 0.0196747 0.0196705 0.0196664 0.0196626 0.019659 0.0196556 0.0196523 0.0196493 0.0196464 0.0196437 0.0196411 0.0196388 0.0196366 0.0196347 0.019633 0.0196314 0.0196301 0.0196289 0.019628 0.0196272 0.0196267 0.0196264 0.0196262 0.0196263 0.0196266 0.0196271 0.0196278 0.0196287 0.0196298 0.0196312 0.0196327 0.0196344 0.0196363 0.0196384 0.0196407 0.0196433 0.019646 0.0196488 0.0196519 0.0196552 0.0196586 0.0196622 0.019666 0.01967 0.0196741 0.0196784 0.0196829 0.0196875 0.0196922 0.0196971 0.0197022 0.0197073 0.0197126 0.0197181 0.0197236 0.0197293 0.019735 0.0197409 0.0197469 0.0197529 0.019759 0.0197652 0.0197715 0.0197778 0.0197841 0.0197906 0.019797 0.0198035 0.01981 0.0198165 0.0198231 0.0198296 0.0198362 0.0198427 0.0198493 0.0198558 0.0198623 0.0198688 0.0198753 0.0198818 0.0198882 0.0198947 0.0199011 0.0199075 0.0199138 0.0199202 0.0199266 0.0199329 0.0199393 0.0199457 0.0199521 0.0199586 0.0199651 0.0199717 0.0199784 0.0199852 0.0199922 0.0199993 0.0200066 0.0200141 0.0200219 0.0200299 0.0200383 0.0200469 0.0200559 0.0200653 0.0200751 0.0200853 0.0200959 0.020107 0.0201185 0.0201306 0.020143 0.020156 0.0201694 0.0201832 0.0201975 0.0202122 0.0202272 0.0202426 0.0202582 0.0202741 0.0202901 0.0203063 0.0203224 0.0203385 0.0203544 0.0203701 0.0203854 0.0204003 0.0204146 0.0204282 0.0204411 0.0204531 0.0204642 0.0204743 0.0204833 0.0204911 0.0204976 0.0205028 0.0205065 0.0205088 0.0205095 0.0205084 0.0205056 0.0205007 0.0204938 0.0204844 0.0204725 0.0204577 0.0204396 0.0204177 0.0203913 0.0203598 0.020322 0.0202766 0.0202222 0.0201566 0.0200773 0.0199814 0.0198652 0.0197243 0.0195534 0.0193464 0.0190964 0.0187963 0.0184393 0.0180198 0.0175344 0.0169819 0.0163663 0.0156856 0.0149287 0.0140859 0.0131361 0.0120808 0.0109123 0.00962409 0.00822106 0.00670592 0.00513187 0.00347902 0.00184758 0.000243627 -0.00156706 -0.00353018 -0.00566178 -0.00762071 -0.0106992 0 0 0 0 0 0 0 0 0 0 0 
0.018901 0.0189605 0.019007 0.0190552 0.019105 0.0191561 0.0192083 0.0192613 0.0193151 0.0193696 0.0194246 0.0194802 0.0195361 0.0195924 0.0196488 0.019705 0.0197605 0.0198145 0.019866 0.0199143 0.0199597 0.020004 0.0200492 0.020096 0.0201442 0.0201933 0.020243 0.0202931 0.0203433 0.0203935 0.0204435 0.0204932 0.0205426 0.0205916 0.02064 0.0206878 0.020735 0.0207815 0.0208273 0.0208724 0.0209166 0.0209599 0.0210024 0.021044 0.0210846 0.0211243 0.0211629 0.0212005 0.0212371 0.0212726 0.021307 0.0213403 0.0213725 0.0214035 0.0214333 0.0214619 0.0214893 0.0215155 0.0215404 0.0215641 0.0215865 0.0216077 0.0216275 0.0216461 0.0216633 0.0216792 0.0216938 0.0217071 0.021719 0.0217297 0.021739 0.0217469 0.0217536 0.0217589 0.0217629 0.0217656 0.0217669 0.021767 0.0217658 0.0217633 0.0217595 0.0217545 0.0217483 0.0217408 0.0217321 0.0217223 0.0217113 0.0216991 0.0216858 0.0216714 0.021656 0.0216395 0.021622 0.0216035 0.0215841 0.0215638 0.0215425 0.0215205 0.0214976 0.0214739 0.0214495 0.0214244 0.0213986 0.0213722 0.0213453 0.0213178 0.0212898 0.0212614 0.0212326 0.0212034 0.0211739 0.0211441 0.0211142 0.021084 0.0210537 0.0210234 0.020993 0.0209626 0.0209323 0.020902 0.0208719 0.020842 0.0208123 0.0207828 0.0207537 0.0207249 0.0206965 0.0206684 0.0206408 0.0206137 0.0205871 0.020561 0.0205355 0.0205105 0.0204861 0.0204624 0.0204393 0.0204168 0.020395 0.0203739 0.0203534 0.0203337 0.0203147 0.0202963 0.0202787 0.0202617 0.0202455 0.0202299 0.0202151 0.0202009 0.0201874 0.0201745 0.0201623 0.0201507 0.0201398 0.0201294 0.0201196 0.0201104 0.0201018 0.0200936 0.020086 0.0200789 0.0200723 0.0200661 0.0200603 0.020055 0.02005 0.0200454 0.0200412 0.0200372 0.0200336 0.0200303 0.0200273 0.0200245 0.020022 0.0200197 0.0200176 0.0200157 0.020014 0.0200124 0.020011 0.0200097 0.0200086 0.0200076 0.0200067 0.0200059 0.0200051 0.0200045 0.0200039 0.0200034 0.020003 0.0200026 0.0200022 0.0200019 0.0200016 0.0200014 0.0200012 0.020001 0.0200009 0.0200008 0.0200006 0.0200005 0.0200005 0.0200004 0.0200003 0.0200003 0.0200002 0.0200002 0.0200002 0.0200001 0.0200001 0.0200001 0.0200001 0.0200001 0.02 0.02 0.02 0.02 0.02 0.02 0.02 0.02 0.02 0.02 0.02 0.02 0.02 0.02 0.02 0.02 0.02 0.02 0.02 0.02 0.02 0.02 0.02 0.02 0.02 0.02 0.0200001 0.0200001 0.0200001 0.0200001 0.0200001 0.0200001 0.0200001 0.0200001 0.0200001 0.0200002 0.0200002 0.0200002 0.0200002 0.0200002 0.0200003 0.0200003 0.0200003 0.0200004 0.0200004 0.0200004 0.0200005 0.0200005 0.0200006 0.0200006 0.0200007 0.0200007 0.0200008 0.0200009 0.0200009 0.020001 0.0200011 0.0200012 0.0200013 0.0200014 0.0200015 0.0200016 0.0200017 0.0200019 0.020002 0.0200021 0.0200023 0.0200024 0.0200026 0.0200028 0.020003 0.0200031 0.0200033 0.0200035 0.0200038 0.020004 0.0200042 0.0200045 0.0200047 0.020005 0.0200052 0.0200055 0.0200058 0.0200061 0.0200064 0.0200067 0.020007 0.0200073 0.0200077 0.020008 0.0200083 0.0200087 0.020009 0.0200094 0.0200097 0.0200101 0.0200104 0.0200108 0.0200111 0.0200114 0.0200118 0.0200121 0.0200124 0.0200127 0.020013 0.0200132 0.0200135 0.0200137 0.0200139 0.0200141 0.0200143 0.0200144 0.0200146 0.0200146 0.0200147 0.0200147 0.0200146 0.0200146 0.0200144 0.0200143 0.020014 0.0200138 0.0200134 0.020013 0.0200125 0.020012 0.0200114 0.0200107 0.02001 0.0200091 0.0200082 0.0200072 0.0200061 0.0200049 0.0200037 0.0200023 0.0200008 0.0199992 0.0199975 0.0199957 0.0199938 0.0199918 0.0199897 0.0199874 0.019985 0.0199826 0.01998 0.0199772 0.0199744 0.0199714 0.0199683 0.0199651 0.0199617 0.0199582 0.0199546 0.0199509 0.019947 0.0199431 0.019939 0.0199348 0.0199304 0.019926 0.0199215 0.0199168 0.019912 0.0199071 0.0199022 0.0198971 0.0198919 0.0198867 0.0198813 0.0198759 0.0198704 0.0198649 0.0198593 0.0198536 0.0198478 0.019842 0.0198362 0.0198304 0.0198245 0.0198185 0.0198126 0.0198067 0.0198007 0.0197948 0.0197888 0.0197829 0.019777 0.0197711 0.0197652 0.0197594 0.0197536 0.0197479 0.0197422 0.0197366 0.0197311 0.0197256 0.0197202 0.0197149 0.0197097 0.0197046 0.0196997 0.0196948 0.0196901 0.0196855 0.019681 0.0196768 0.0196727 0.0196688 0.019665 0.0196614 0.019658 0.0196547 0.0196516 0.0196487 0.019646 0.0196435 0.0196411 0.019639 0.019637 0.0196352 0.0196337 0.0196323 0.0196311 0.0196302 0.0196294 0.0196289 0.0196285 0.0196284 0.0196284 0.0196287 0.0196292 0.0196298 0.0196307 0.0196318 0.0196331 0.0196345 0.0196362 0.0196381 0.0196402 0.0196424 0.0196449 0.0196475 0.0196504 0.0196534 0.0196566 0.01966 0.0196636 0.0196673 0.0196712 0.0196753 0.0196795 0.0196839 0.0196885 0.0196932 0.019698 0.019703 0.0197081 0.0197134 0.0197187 0.0197242 0.0197298 0.0197355 0.0197413 0.0197472 0.0197532 0.0197593 0.0197654 0.0197716 0.0197779 0.0197842 0.0197906 0.019797 0.0198034 0.0198099 0.0198164 0.0198229 0.0198294 0.0198359 0.0198424 0.0198489 0.0198554 0.0198619 0.0198684 0.0198749 0.0198813 0.0198877 0.0198941 0.0199005 0.0199069 0.0199133 0.0199196 0.019926 0.0199323 0.0199387 0.0199451 0.0199515 0.0199579 0.0199645 0.0199711 0.0199778 0.0199846 0.0199915 0.0199986 0.0200059 0.0200134 0.0200212 0.0200292 0.0200375 0.0200462 0.0200552 0.0200645 0.0200743 0.0200844 0.0200951 0.0201061 0.0201176 0.0201296 0.0201421 0.020155 0.0201683 0.0201822 0.0201964 0.0202111 0.0202261 0.0202414 0.020257 0.0202729 0.0202889 0.020305 0.0203211 0.0203371 0.020353 0.0203687 0.020384 0.0203988 0.020413 0.0204266 0.0204395 0.0204514 0.0204624 0.0204724 0.0204812 0.0204888 0.0204952 0.0205001 0.0205036 0.0205056 0.0205059 0.0205045 0.0205012 0.0204959 0.0204884 0.0204785 0.020466 0.0204506 0.0204319 0.0204094 0.0203825 0.0203504 0.0203121 0.0202663 0.0202116 0.0201459 0.0200667 0.0199713 0.0198558 0.019716 0.0195468 0.0193419 0.0190948 0.0187984 0.0184461 0.0180329 0.0175555 0.0170143 0.016411 0.0157426 0.0150067 0.0141805 0.0132511 0.0122068 0.0110471 0.00977165 0.00838006 0.0068881 0.00531452 0.00368849 0.00198996 0.0002638 -0.00160664 -0.00353579 -0.00550195 -0.00748495 -0.00973066 -0.0122907 -0.014816 -0.0179105 -0.022658 0 0 0 0 0 -0.0102643 0 
0.018901 0.018956 0.0190059 0.0190554 0.0191056 0.0191568 0.019209 0.0192621 0.0193159 0.0193703 0.0194253 0.0194808 0.0195367 0.0195928 0.0196488 0.0197043 0.0197587 0.0198113 0.0198616 0.0199096 0.0199559 0.0200021 0.0200488 0.0200965 0.0201451 0.0201944 0.0202442 0.0202944 0.0203446 0.0203948 0.0204448 0.0204945 0.0205439 0.0205928 0.0206413 0.0206891 0.0207363 0.0207828 0.0208286 0.0208736 0.0209178 0.0209611 0.0210036 0.0210451 0.0210857 0.0211254 0.021164 0.0212016 0.0212382 0.0212737 0.0213081 0.0213414 0.0213735 0.0214045 0.0214343 0.0214629 0.0214903 0.0215164 0.0215413 0.021565 0.0215874 0.0216085 0.0216283 0.0216468 0.021664 0.0216799 0.0216945 0.0217078 0.0217197 0.0217303 0.0217396 0.0217475 0.0217541 0.0217594 0.0217634 0.021766 0.0217674 0.0217674 0.0217662 0.0217637 0.0217599 0.0217548 0.0217486 0.0217411 0.0217324 0.0217225 0.0217114 0.0216992 0.0216859 0.0216715 0.0216561 0.0216395 0.021622 0.0216035 0.0215841 0.0215637 0.0215424 0.0215203 0.0214974 0.0214737 0.0214492 0.0214241 0.0213983 0.0213719 0.0213449 0.0213174 0.0212894 0.021261 0.0212321 0.0212029 0.0211734 0.0211436 0.0211136 0.0210834 0.0210531 0.0210228 0.0209924 0.0209619 0.0209316 0.0209013 0.0208712 0.0208413 0.0208116 0.0207821 0.020753 0.0207241 0.0206957 0.0206677 0.0206401 0.0206129 0.0205863 0.0205602 0.0205347 0.0205097 0.0204854 0.0204616 0.0204385 0.0204161 0.0203943 0.0203732 0.0203527 0.020333 0.020314 0.0202956 0.020278 0.0202611 0.0202449 0.0202293 0.0202145 0.0202003 0.0201868 0.020174 0.0201618 0.0201502 0.0201393 0.020129 0.0201192 0.02011 0.0201014 0.0200933 0.0200857 0.0200786 0.020072 0.0200658 0.02006 0.0200547 0.0200498 0.0200452 0.020041 0.0200371 0.0200335 0.0200302 0.0200272 0.0200244 0.0200219 0.0200196 0.0200175 0.0200156 0.0200139 0.0200123 0.0200109 0.0200097 0.0200085 0.0200075 0.0200066 0.0200058 0.0200051 0.0200044 0.0200039 0.0200034 0.0200029 0.0200025 0.0200022 0.0200019 0.0200016 0.0200014 0.0200012 0.020001 0.0200009 0.0200007 0.0200006 0.0200005 0.0200005 0.0200004 0.0200003 0.0200003 0.0200002 0.0200002 0.0200002 0.0200001 0.0200001 0.0200001 0.0200001 0.0200001 0.02 0.02 0.02 0.02 0.02 0.02 0.02 0.02 0.02 0.02 0.02 0.02 0.02 0.02 0.02 0.02 0.02 0.02 0.02 0.02 0.02 0.02 0.02 0.02 0.02 0.02 0.0200001 0.0200001 0.0200001 0.0200001 0.0200001 0.0200001 0.0200001 0.0200001 0.0200001 0.0200002 0.0200002 0.0200002 0.0200002 0.0200002 0.0200003 0.0200003 0.0200003 0.0200004 0.0200004 0.0200004 0.0200005 0.0200005 0.0200006 0.0200006 0.0200007 0.0200007 0.0200008 0.0200009 0.0200009 0.020001 0.0200011 0.0200012 0.0200013 0.0200014 0.0200015 0.0200016 0.0200017 0.0200018 0.020002 0.0200021 0.0200023 0.0200024 0.0200026 0.0200028 0.0200029 0.0200031 0.0200033 0.0200035 0.0200037 0.020004 0.0200042 0.0200044 0.0200047 0.0200049 0.0200052 0.0200055 0.0200058 0.0200061 0.0200064 0.0200067 0.020007 0.0200073 0.0200076 0.0200079 0.0200083 0.0200086 0.020009 0.0200093 0.0200097 0.02001 0.0200104 0.0200107 0.020011 0.0200114 0.0200117 0.020012 0.0200123 0.0200126 0.0200129 0.0200132 0.0200134 0.0200137 0.0200139 0.0200141 0.0200143 0.0200144 0.0200145 0.0200146 0.0200146 0.0200146 0.0200146 0.0200145 0.0200144 0.0200143 0.020014 0.0200138 0.0200134 0.020013 0.0200126 0.0200121 0.0200115 0.0200108 0.0200101 0.0200093 0.0200084 0.0200074 0.0200063 0.0200051 0.0200039 0.0200025 0.0200011 0.0199995 0.0199979 0.0199961 0.0199942 0.0199923 0.0199902 0.0199879 0.0199856 0.0199832 0.0199806 0.0199779 0.0199751 0.0199722 0.0199691 0.0199659 0.0199626 0.0199592 0.0199557 0.019952 0.0199482 0.0199443 0.0199402 0.0199361 0.0199318 0.0199274 0.0199229 0.0199183 0.0199136 0.0199088 0.0199039 0.0198989 0.0198938 0.0198886 0.0198833 0.019878 0.0198725 0.019867 0.0198614 0.0198558 0.0198501 0.0198444 0.0198386 0.0198328 0.0198269 0.0198211 0.0198152 0.0198092 0.0198033 0.0197974 0.0197914 0.0197855 0.0197796 0.0197737 0.0197679 0.0197621 0.0197563 0.0197506 0.0197449 0.0197393 0.0197338 0.0197283 0.0197229 0.0197177 0.0197125 0.0197074 0.0197025 0.0196977 0.019693 0.0196885 0.0196841 0.0196799 0.0196758 0.0196719 0.0196682 0.0196646 0.0196611 0.0196579 0.0196548 0.0196519 0.0196491 0.0196466 0.0196442 0.0196421 0.0196401 0.0196383 0.0196367 0.0196353 0.0196342 0.0196332 0.0196324 0.0196318 0.0196314 0.0196312 0.0196312 0.0196315 0.0196319 0.0196325 0.0196333 0.0196344 0.0196356 0.019637 0.0196387 0.0196405 0.0196425 0.0196447 0.0196471 0.0196497 0.0196524 0.0196554 0.0196585 0.0196618 0.0196653 0.019669 0.0196728 0.0196768 0.019681 0.0196853 0.0196897 0.0196944 0.0196991 0.019704 0.019709 0.0197142 0.0197195 0.0197249 0.0197304 0.019736 0.0197417 0.0197476 0.0197535 0.0197594 0.0197655 0.0197716 0.0197778 0.0197841 0.0197903 0.0197967 0.019803 0.0198094 0.0198158 0.0198223 0.0198287 0.0198352 0.0198416 0.0198481 0.0198546 0.019861 0.0198674 0.0198738 0.0198802 0.0198866 0.019893 0.0198994 0.0199057 0.019912 0.0199184 0.0199247 0.019931 0.0199374 0.0199437 0.0199502 0.0199566 0.0199631 0.0199697 0.0199764 0.0199832 0.0199901 0.0199973 0.0200045 0.020012 0.0200198 0.0200278 0.0200361 0.0200447 0.0200537 0.020063 0.0200728 0.0200829 0.0200935 0.0201045 0.020116 0.020128 0.0201404 0.0201533 0.0201666 0.0201804 0.0201946 0.0202092 0.0202242 0.0202395 0.0202551 0.0202709 0.0202868 0.0203029 0.020319 0.020335 0.0203509 0.0203664 0.0203817 0.0203964 0.0204106 0.0204241 0.0204368 0.0204487 0.0204595 0.0204693 0.0204779 0.0204852 0.0204912 0.0204958 0.0204989 0.0205004 0.0205002 0.0204981 0.0204942 0.0204882 0.0204799 0.0204693 0.0204559 0.0204396 0.02042 0.0203966 0.0203688 0.0203359 0.0202968 0.0202505 0.0201954 0.0201295 0.0200505 0.0199556 0.0198411 0.019703 0.0195359 0.0193342 0.0190911 0.0188003 0.0184558 0.0180531 0.0175895 0.0170646 0.016478 0.0158323 0.0151144 0.0143092 0.0134018 0.0123757 0.0112341 0.009977 0.00859938 0.00711904 0.00554018 0.00388625 0.00215446 0.000342977 -0.00154902 -0.00346696 -0.00543158 -0.00753159 -0.00970194 -0.0121569 -0.0142764 -0.0173374 -0.0208358 -0.0238134 -0.0258303 -0.0264288 -0.0246928 -0.0197104 -0.0111854 1.0842e-18 