# vtk DataFile Version 2.0
iteration 2646
ASCII

DATASET STRUCTURED_POINTS
DIMENSIONS 621 64 1
ORIGIN 0 0 0
SPACING 0.00161031 0.00161031 0.00161031

POINT_DATA 39744
SCALARS P float 1
LOOKUP_TABLE default
0 0 0 0 0 0 0 0 0 0 0 0 0 0 0 0 0 0 0 0 0 0 0 0 0 0 0 0 0 0 0 0 0 0 0 0 0 0 0 0 0 0 0 0 0 0 0 0 0 0 0 0 0 0 0 0 0 0 0 0 0 0 0 0 0 0 0 0 0 0 0 0 0 0 0 0 0 0 0 0 0 0 0 0 0 0 0 0 0 0 0 0 0 0 0 0 0 0 0 0 0 0 0 0 0 0 0 0 0 0 0 0 0 0 0 0 0 0 0 0 0 0 0 0 0 0 0 0 0 0 0 0 0 0 0 0 0 0 0 0 0 0 0 0 0 0 0 0 0 0 0 0 0 0 0 0 0 0 0 0 0 0 0 0 0 0 0 0 0 0 0 0 0 0 0 0 0 0 0 0 0 0 0 0 0 0 0 0 0 0 0 0 0 0 0 0 0 0 0 0 0 0 0 0 0 0 0 0 0 0 0 0 0 0 0 0 0 0 0 0 0 0 0 0 0 0 0 0 0 0 0 0 0 0 0 0 0 0 0 0 0 0 0 0 0 0 0 0 0 0 0 0 0 0 0 0 0 0 0 0 0 0 0 0 0 0 0 0 0 0 0 0 0 0 0 0 0 0 0 0 0 0 0 0 0 0 0 0 0 0 0 0 0 0 0 0 0 0 0 0 0 0 0 0 0 0 0 0 0 0 0 0 0 0 0 0 0 0 0 0 0 0 0 0 0 0 0 0 0 0 0 0 0 0 0 0 0 0 0 0 0 0 0 0 0 0 0 0 0 0 0 0 0 0 0 0 0 0 0 0 0 0 0 0 0 0 0 0 0 0 0 0 0 0 0 0 0 0 0 0 0 0 0 0 0 0 0 0 0 0 0 0 0 0 0 0 0 0 0 0 0 0 0 0 0 0 0 0 0 0 0 0 0 0 0 0 0 0 0 0 0 0 0 0 0 0 0 0 0 0 0 0 0 0 0 0 0 0 0 0 0 0 0 0 0 0 0 0 0 0 0 0 0 0 0 0 0 0 0 0 0 0 0 0 0 0 0 0 0 0 0 0 0 0 0 0 0 0 0 0 0 0 0 0 0 0 0 0 0 0 0 0 0 0 0 0 0 0 0 0 0 0 0 0 0 0 0 0 0 0 0 0 0 0 0 0 0 0 0 0 0 0 0 0 0 0 0 0 0 0 0 0 0 0 0 0 0 0 0 0 0 0 0 0 0 0 0 0 0 0 0 0 0 0 0 0 0 0 0 0 0 0 0 0 0 0 0 0 0 0 0 0 0 0 0 0 0 0 0 0 0 0 0 0 0 0 0 0 0 0 0 0 0 0 0 0 0 0 0 0 0 0 0 0 0 0 0 0 0 0 0 0 0 0 0 0 0 0 0 0 0 
0.0181404 0.0182151 0.0181149 0.0180958 0.0180802 0.0180678 0.018058 0.0180502 0.0180442 0.01804 0.0180377 0.018037 0.0180382 0.0180411 0.0180457 0.018052 0.0180599 0.0180696 0.0180808 0.0180937 0.0181081 0.0181241 0.0181415 0.0181605 0.0181809 0.0182028 0.018226 0.0182506 0.0182766 0.0183038 0.0183323 0.018362 0.0183929 0.018425 0.0184581 0.0184923 0.0185275 0.0185637 0.0186007 0.0186387 0.0186775 0.018717 0.0187574 0.0187984 0.0188401 0.0188824 0.0189253 0.0189689 0.0190129 0.0190575 0.0191026 0.0191482 0.0191942 0.0192407 0.0192876 0.0193348 0.0193824 0.0194304 0.0194787 0.0195272 0.019576 0.019625 0.0196742 0.0197235 0.0197728 0.0198219 0.0198703 0.0199167 0.0199578 0.0199905 0.0200211 0.0200587 0.0200993 0.0201413 0.020184 0.0202273 0.0202708 0.0203145 0.0203583 0.020402 0.0204455 0.0204889 0.0205321 0.0205749 0.0206174 0.0206595 0.020701 0.0207421 0.0207826 0.0208226 0.0208618 0.0209004 0.0209383 0.0209754 0.0210118 0.0210473 0.021082 0.0211158 0.0211486 0.0211806 0.0212116 0.0212416 0.0212706 0.0212986 0.0213255 0.0213514 0.0213762 0.0213999 0.0214225 0.021444 0.0214643 0.0214836 0.0215016 0.0215185 0.0215343 0.0215489 0.0215623 0.0215745 0.0215856 0.0215954 0.0216041 0.0216116 0.021618 0.0216232 0.0216272 0.02163 0.0216317 0.0216323 0.0216317 0.02163 0.0216272 0.0216233 0.0216183 0.0216122 0.0216051 0.0215969 0.0215878 0.0215776 0.0215665 0.0215544 0.0215413 0.0215274 0.0215126 0.021497 0.0214805 0.0214632 0.0214452 0.0214264 0.0214069 0.0213868 0.021366 0.0213446 0.0213226 0.0213001 0.0212771 0.0212536 0.0212297 0.0212054 0.0211807 0.0211557 0.0211304 0.0211049 0.0210791 0.0210532 0.0210271 0.0210009 0.0209747 0.0209484 0.0209221 0.0208959 0.0208697 0.0208436 0.0208177 0.0207919 0.0207663 0.0207409 0.0207158 0.020691 0.0206665 0.0206423 0.0206184 0.0205949 0.0205718 0.0205492 0.0205269 0.0205052 0.0204838 0.020463 0.0204427 0.0204228 0.0204035 0.0203847 0.0203664 0.0203487 0.0203315 0.0203148 0.0202987 0.0202831 0.0202681 0.0202536 0.0202396 0.0202262 0.0202134 0.020201 0.0201892 0.0201778 0.020167 0.0201567 0.0201468 0.0201374 0.0201285 0.02012 0.0201119 0.0201043 0.0200971 0.0200903 0.0200838 0.0200778 0.020072 0.0200667 0.0200616 0.0200569 0.0200524 0.0200483 0.0200444 0.0200408 0.0200374 0.0200343 0.0200314 0.0200287 0.0200262 0.0200239 0.0200217 0.0200197 0.0200179 0.0200162 0.0200147 0.0200133 0.020012 0.0200108 0.0200097 0.0200087 0.0200078 0.020007 0.0200063 0.0200056 0.020005 0.0200044 0.0200039 0.0200035 0.0200031 0.0200027 0.0200024 0.0200021 0.0200018 0.0200016 0.0200014 0.0200012 0.020001 0.0200008 0.0200007 0.0200006 0.0200004 0.0200003 0.0200002 0.0200002 0.0200001 0.02 0.0199999 0.0199999 0.0199998 0.0199998 0.0199997 0.0199996 0.0199996 0.0199995 0.0199995 0.0199994 0.0199994 0.0199993 0.0199993 0.0199992 0.0199992 0.0199991 0.0199991 0.019999 0.019999 0.0199989 0.0199989 0.0199988 0.0199987 0.0199987 0.0199986 0.0199985 0.0199985 0.0199984 0.0199983 0.0199983 0.0199982 0.0199981 0.0199981 0.019998 0.0199979 0.0199979 0.0199978 0.0199977 0.0199977 0.0199976 0.0199976 0.0199975 0.0199975 0.0199974 0.0199974 0.0199974 0.0199973 0.0199973 0.0199973 0.0199973 0.0199974 0.0199974 0.0199974 0.0199975 0.0199976 0.0199976 0.0199977 0.0199979 0.019998 0.0199982 0.0199984 0.0199986 0.0199988 0.0199991 0.0199994 0.0199997 0.0200001 0.0200005 0.0200009 0.0200014 0.0200019 0.0200024 0.020003 0.0200036 0.0200043 0.020005 0.0200058 0.0200066 0.0200075 0.0200084 0.0200094 0.0200104 0.0200115 0.0200127 0.0200139 0.0200152 0.0200166 0.020018 0.0200195 0.0200211 0.0200227 0.0200244 0.0200262 0.020028 0.02003 0.020032 0.0200341 0.0200362 0.0200385 0.0200408 0.0200432 0.0200457 0.0200482 0.0200509 0.0200536 0.0200564 0.0200593 0.0200622 0.0200653 0.0200684 0.0200716 0.0200748 0.0200782 0.0200816 0.0200851 0.0200886 0.0200923 0.020096 0.0200997 0.0201035 0.0201074 0.0201113 0.0201153 0.0201194 0.0201235 0.0201276 0.0201318 0.020136 0.0201403 0.0201446 0.0201489 0.0201533 0.0201576 0.0201621 0.0201665 0.0201709 0.0201754 0.0201799 0.0201844 0.0201888 0.0201933 0.0201978 0.0202023 0.0202068 0.0202112 0.0202157 0.0202201 0.0202245 0.0202289 0.0202333 0.0202377 0.020242 0.0202463 0.0202506 0.0202548 0.020259 0.0202632 0.0202674 0.0202715 0.0202756 0.0202796 0.0202837 0.0202876 0.0202916 0.0202955 0.0202994 0.0203033 0.0203071 0.0203109 0.0203147 0.0203184 0.0203221 0.0203258 0.0203295 0.0203331 0.0203367 0.0203403 0.0203439 0.0203475 0.0203511 0.0203546 0.0203582 0.0203617 0.0203652 0.0203688 0.0203723 0.0203758 0.0203793 0.0203828 0.0203864 0.0203899 0.0203934 0.0203969 0.0204004 0.020404 0.0204075 0.020411 0.0204145 0.020418 0.0204215 0.020425 0.0204285 0.020432 0.0204355 0.0204389 0.0204423 0.0204457 0.020449 0.0204523 0.0204556 0.0204588 0.0204619 0.020465 0.020468 0.0204709 0.0204738 0.0204765 0.0204792 0.0204817 0.0204841 0.0204864 0.0204885 0.0204905 0.0204923 0.020494 0.0204954 0.0204967 0.0204978 0.0204986 0.0204993 0.0204997 0.0204999 0.0204998 0.0204994 0.0204988 0.0204979 0.0204966 0.0204951 0.0204932 0.0204911 0.0204885 0.0204856 0.0204824 0.0204787 0.0204747 0.0204702 0.0204654 0.0204601 0.0204544 0.0204482 0.0204416 0.0204345 0.0204269 0.0204188 0.0204102 0.0204011 0.0203915 0.0203814 0.0203707 0.0203595 0.0203477 0.0203354 0.0203224 0.0203089 0.0202948 0.0202801 0.0202648 0.0202489 0.0202324 0.0202153 0.0201976 0.0201793 0.0201604 0.0201409 0.0201209 0.0201003 0.0200791 0.0200575 0.0200353 0.0200127 0.0199896 0.0199661 0.0199423 0.0199181 0.0198936 0.0198689 0.019844 0.0198189 0.0197938 0.0197688 0.0197437 0.0197188 0.0196941 0.0196697 0.0196456 0.019622 0.0195989 0.0195764 0.0195545 0.0195333 0.0195129 0.0194934 0.0194747 0.019457 0.0194402 0.0194244 0.0194096 0.0193958 0.019383 0.0193712 0.0193603 0.0193503 0.0193411 0.0193327 0.0193251 0.0193182 0.0193119 0.0193062 0.019301 0.0192964 0.0192922 0.0192883 0.0192848 0.0192814 0.0192781 0.0192747 0.0192708 0.0192662 0.0192605 0.0192532 0.0192439 0.0192319 0.0192166 0.0191972 0.0191729 0.0191426 0.0191052 0.019059 0.0190021 0.0189313 0.0188329 0.0186839 0.0184944 0.0182519 0.0179423 0.0175364 0.0170122 0.0165388 0.0180218 0 0 0 0 
0.0181404 0.0181568 0.018118 0.0180976 0.0180817 0.0180691 0.0180589 0.0180509 0.0180448 0.0180406 0.0180382 0.0180375 0.0180386 0.0180415 0.0180461 0.0180523 0.0180603 0.0180699 0.0180811 0.018094 0.0181084 0.0181243 0.0181418 0.0181607 0.0181811 0.0182029 0.0182262 0.0182508 0.0182767 0.0183039 0.0183324 0.0183621 0.018393 0.018425 0.0184581 0.0184923 0.0185275 0.0185637 0.0186008 0.0186387 0.0186775 0.0187171 0.0187574 0.0187984 0.0188401 0.0188825 0.0189254 0.0189689 0.019013 0.0190576 0.0191027 0.0191483 0.0191943 0.0192408 0.0192876 0.0193349 0.0193825 0.0194304 0.0194787 0.0195272 0.019576 0.019625 0.0196741 0.0197233 0.0197724 0.0198209 0.019868 0.0199127 0.0199534 0.0199896 0.0200259 0.0200644 0.020105 0.0201469 0.0201896 0.0202327 0.0202762 0.0203198 0.0203635 0.0204071 0.0204506 0.020494 0.020537 0.0205798 0.0206222 0.0206642 0.0207057 0.0207467 0.0207871 0.0208269 0.0208661 0.0209046 0.0209424 0.0209794 0.0210157 0.0210511 0.0210857 0.0211193 0.0211521 0.0211839 0.0212148 0.0212447 0.0212736 0.0213015 0.0213283 0.0213541 0.0213787 0.0214023 0.0214248 0.0214462 0.0214664 0.0214855 0.0215035 0.0215203 0.0215359 0.0215503 0.0215636 0.0215757 0.0215867 0.0215964 0.021605 0.0216124 0.0216186 0.0216237 0.0216276 0.0216303 0.0216319 0.0216323 0.0216316 0.0216298 0.0216269 0.0216229 0.0216178 0.0216116 0.0216044 0.0215961 0.0215868 0.0215765 0.0215653 0.0215531 0.02154 0.021526 0.0215111 0.0214953 0.0214788 0.0214614 0.0214433 0.0214244 0.0214049 0.0213846 0.0213638 0.0213423 0.0213203 0.0212977 0.0212746 0.0212511 0.0212271 0.0212027 0.021178 0.021153 0.0211276 0.0211021 0.0210763 0.0210503 0.0210242 0.020998 0.0209718 0.0209455 0.0209192 0.0208929 0.0208667 0.0208407 0.0208147 0.020789 0.0207634 0.020738 0.0207129 0.0206881 0.0206636 0.0206395 0.0206156 0.0205922 0.0205692 0.0205465 0.0205243 0.0205026 0.0204813 0.0204606 0.0204403 0.0204205 0.0204012 0.0203825 0.0203642 0.0203466 0.0203294 0.0203128 0.0202968 0.0202813 0.0202663 0.0202519 0.020238 0.0202247 0.0202118 0.0201995 0.0201878 0.0201765 0.0201657 0.0201554 0.0201456 0.0201363 0.0201274 0.020119 0.020111 0.0201034 0.0200963 0.0200895 0.0200831 0.0200771 0.0200714 0.020066 0.020061 0.0200563 0.0200519 0.0200478 0.020044 0.0200404 0.020037 0.0200339 0.0200311 0.0200284 0.0200259 0.0200236 0.0200215 0.0200195 0.0200177 0.0200161 0.0200145 0.0200131 0.0200119 0.0200107 0.0200096 0.0200086 0.0200077 0.0200069 0.0200062 0.0200055 0.0200049 0.0200044 0.0200039 0.0200034 0.020003 0.0200027 0.0200023 0.0200021 0.0200018 0.0200015 0.0200013 0.0200011 0.020001 0.0200008 0.0200007 0.0200006 0.0200004 0.0200003 0.0200002 0.0200002 0.0200001 0.02 0.0199999 0.0199999 0.0199998 0.0199998 0.0199997 0.0199996 0.0199996 0.0199995 0.0199995 0.0199995 0.0199994 0.0199994 0.0199993 0.0199993 0.0199992 0.0199991 0.0199991 0.019999 0.019999 0.0199989 0.0199989 0.0199988 0.0199987 0.0199987 0.0199986 0.0199986 0.0199985 0.0199984 0.0199984 0.0199983 0.0199982 0.0199981 0.0199981 0.019998 0.0199979 0.0199979 0.0199978 0.0199977 0.0199977 0.0199976 0.0199976 0.0199975 0.0199975 0.0199974 0.0199974 0.0199974 0.0199974 0.0199973 0.0199973 0.0199973 0.0199974 0.0199974 0.0199974 0.0199975 0.0199976 0.0199976 0.0199977 0.0199979 0.019998 0.0199982 0.0199984 0.0199986 0.0199988 0.0199991 0.0199994 0.0199997 0.02 0.0200004 0.0200009 0.0200013 0.0200018 0.0200023 0.0200029 0.0200035 0.0200042 0.0200049 0.0200057 0.0200065 0.0200074 0.0200083 0.0200093 0.0200103 0.0200114 0.0200126 0.0200138 0.0200151 0.0200164 0.0200178 0.0200193 0.0200209 0.0200225 0.0200242 0.020026 0.0200278 0.0200297 0.0200317 0.0200338 0.020036 0.0200382 0.0200405 0.0200429 0.0200454 0.0200479 0.0200505 0.0200533 0.020056 0.0200589 0.0200619 0.0200649 0.020068 0.0200712 0.0200744 0.0200778 0.0200812 0.0200846 0.0200882 0.0200918 0.0200955 0.0200992 0.020103 0.0201069 0.0201108 0.0201148 0.0201188 0.0201229 0.0201271 0.0201312 0.0201355 0.0201397 0.020144 0.0201483 0.0201527 0.0201571 0.0201615 0.0201659 0.0201704 0.0201749 0.0201793 0.0201838 0.0201883 0.0201928 0.0201973 0.0202018 0.0202063 0.0202107 0.0202152 0.0202196 0.0202241 0.0202285 0.0202329 0.0202372 0.0202416 0.0202459 0.0202502 0.0202545 0.0202587 0.0202629 0.0202671 0.0202712 0.0202753 0.0202794 0.0202834 0.0202874 0.0202914 0.0202953 0.0202992 0.0203031 0.020307 0.0203108 0.0203146 0.0203183 0.0203221 0.0203258 0.0203294 0.0203331 0.0203367 0.0203404 0.020344 0.0203476 0.0203511 0.0203547 0.0203582 0.0203618 0.0203653 0.0203688 0.0203724 0.0203759 0.0203794 0.0203829 0.0203864 0.0203899 0.0203934 0.020397 0.0204005 0.020404 0.0204075 0.020411 0.0204145 0.020418 0.0204215 0.0204249 0.0204284 0.0204318 0.0204353 0.0204387 0.020442 0.0204454 0.0204487 0.020452 0.0204552 0.0204583 0.0204615 0.0204645 0.0204675 0.0204704 0.0204732 0.0204759 0.0204785 0.020481 0.0204833 0.0204856 0.0204877 0.0204896 0.0204914 0.0204931 0.0204945 0.0204958 0.0204968 0.0204977 0.0204983 0.0204987 0.0204989 0.0204988 0.0204984 0.0204978 0.0204969 0.0204957 0.0204942 0.0204924 0.0204902 0.0204877 0.0204848 0.0204816 0.020478 0.020474 0.0204697 0.0204649 0.0204596 0.020454 0.0204479 0.0204413 0.0204343 0.0204268 0.0204188 0.0204104 0.0204014 0.0203919 0.0203818 0.0203712 0.0203601 0.0203484 0.0203362 0.0203234 0.02031 0.020296 0.0202814 0.0202662 0.0202505 0.0202341 0.0202171 0.0201996 0.0201814 0.0201626 0.0201433 0.0201234 0.020103 0.020082 0.0200604 0.0200384 0.0200159 0.019993 0.0199696 0.0199459 0.0199219 0.0198975 0.019873 0.0198482 0.0198233 0.0197983 0.0197734 0.0197485 0.0197237 0.0196991 0.0196748 0.0196509 0.0196274 0.0196044 0.0195819 0.0195602 0.0195391 0.0195188 0.0194994 0.0194808 0.0194632 0.0194465 0.0194308 0.0194161 0.0194024 0.0193897 0.019378 0.0193672 0.0193573 0.0193482 0.01934 0.0193324 0.0193256 0.0193194 0.0193138 0.0193087 0.0193041 0.0192998 0.019296 0.0192923 0.0192889 0.0192853 0.0192816 0.0192773 0.0192722 0.0192658 0.0192578 0.0192475 0.0192344 0.0192178 0.0191968 0.0191708 0.0191385 0.0190989 0.0190503 0.0189906 0.0189168 0.0188206 0.0186834 0.0184973 0.0182556 0.0179435 0.0175364 0.0170203 0.0164548 0.0159241 0.0145391 0.0125966 0.0119124 0 
0.0181404 0.0181385 0.0181165 0.018098 0.0180826 0.0180699 0.0180596 0.0180514 0.0180453 0.018041 0.0180385 0.0180379 0.018039 0.0180418 0.0180464 0.0180527 0.0180606 0.0180702 0.0180815 0.0180943 0.0181087 0.0181247 0.0181421 0.0181611 0.0181815 0.0182033 0.0182266 0.0182511 0.0182771 0.0183043 0.0183328 0.0183625 0.0183934 0.0184254 0.0184585 0.0184927 0.0185279 0.0185641 0.0186011 0.0186391 0.0186779 0.0187175 0.0187578 0.0187988 0.0188405 0.0188829 0.0189259 0.0189694 0.0190135 0.0190581 0.0191032 0.0191488 0.0191948 0.0192413 0.0192882 0.0193354 0.019383 0.019431 0.0194792 0.0195278 0.0195765 0.0196255 0.0196745 0.0197234 0.0197719 0.0198194 0.0198651 0.0199082 0.0199487 0.0199871 0.0200258 0.0200657 0.0201067 0.0201488 0.0201915 0.0202347 0.0202781 0.0203218 0.0203654 0.0204091 0.0204526 0.0204959 0.0205389 0.0205817 0.0206241 0.020666 0.0207075 0.0207485 0.0207889 0.0208287 0.0208679 0.0209064 0.0209441 0.0209811 0.0210173 0.0210527 0.0210873 0.0211209 0.0211537 0.0211855 0.0212163 0.0212462 0.021275 0.0213029 0.0213296 0.0213554 0.02138 0.0214036 0.021426 0.0214473 0.0214675 0.0214866 0.0215045 0.0215212 0.0215368 0.0215513 0.0215645 0.0215766 0.0215875 0.0215972 0.0216057 0.0216131 0.0216192 0.0216242 0.0216281 0.0216308 0.0216323 0.0216327 0.021632 0.0216301 0.0216271 0.021623 0.0216179 0.0216117 0.0216044 0.0215961 0.0215868 0.0215764 0.0215652 0.0215529 0.0215398 0.0215257 0.0215108 0.021495 0.0214784 0.021461 0.0214428 0.0214239 0.0214043 0.021384 0.0213631 0.0213416 0.0213195 0.0212969 0.0212738 0.0212503 0.0212262 0.0212019 0.0211771 0.021152 0.0211267 0.0211011 0.0210753 0.0210493 0.0210232 0.020997 0.0209707 0.0209444 0.0209181 0.0208918 0.0208656 0.0208396 0.0208136 0.0207878 0.0207623 0.0207369 0.0207118 0.020687 0.0206625 0.0206383 0.0206145 0.0205911 0.0205681 0.0205454 0.0205233 0.0205015 0.0204803 0.0204595 0.0204393 0.0204195 0.0204002 0.0203815 0.0203633 0.0203457 0.0203285 0.020312 0.0202959 0.0202804 0.0202655 0.0202511 0.0202373 0.0202239 0.0202111 0.0201989 0.0201871 0.0201759 0.0201651 0.0201549 0.0201451 0.0201358 0.0201269 0.0201185 0.0201105 0.020103 0.0200958 0.0200891 0.0200827 0.0200767 0.020071 0.0200657 0.0200607 0.0200561 0.0200517 0.0200476 0.0200437 0.0200402 0.0200368 0.0200338 0.0200309 0.0200282 0.0200257 0.0200235 0.0200213 0.0200194 0.0200176 0.020016 0.0200144 0.0200131 0.0200118 0.0200106 0.0200096 0.0200086 0.0200077 0.0200069 0.0200062 0.0200055 0.0200049 0.0200043 0.0200039 0.0200034 0.020003 0.0200027 0.0200023 0.020002 0.0200018 0.0200015 0.0200013 0.0200011 0.020001 0.0200008 0.0200007 0.0200005 0.0200004 0.0200003 0.0200002 0.0200002 0.0200001 0.02 0.0199999 0.0199999 0.0199998 0.0199998 0.0199997 0.0199997 0.0199996 0.0199996 0.0199995 0.0199995 0.0199994 0.0199994 0.0199993 0.0199993 0.0199992 0.0199992 0.0199991 0.019999 0.019999 0.0199989 0.0199989 0.0199988 0.0199988 0.0199987 0.0199986 0.0199986 0.0199985 0.0199984 0.0199984 0.0199983 0.0199982 0.0199982 0.0199981 0.019998 0.019998 0.0199979 0.0199978 0.0199978 0.0199977 0.0199976 0.0199976 0.0199975 0.0199975 0.0199975 0.0199974 0.0199974 0.0199974 0.0199974 0.0199974 0.0199974 0.0199974 0.0199974 0.0199974 0.0199975 0.0199976 0.0199977 0.0199978 0.0199979 0.019998 0.0199982 0.0199984 0.0199986 0.0199988 0.0199991 0.0199994 0.0199997 0.02 0.0200004 0.0200008 0.0200013 0.0200018 0.0200023 0.0200029 0.0200035 0.0200042 0.0200049 0.0200056 0.0200064 0.0200073 0.0200082 0.0200092 0.0200102 0.0200113 0.0200124 0.0200136 0.0200149 0.0200163 0.0200177 0.0200191 0.0200207 0.0200223 0.020024 0.0200257 0.0200276 0.0200295 0.0200315 0.0200335 0.0200356 0.0200379 0.0200402 0.0200425 0.020045 0.0200475 0.0200501 0.0200528 0.0200556 0.0200585 0.0200614 0.0200644 0.0200675 0.0200706 0.0200739 0.0200772 0.0200806 0.020084 0.0200876 0.0200912 0.0200948 0.0200986 0.0201024 0.0201062 0.0201101 0.0201141 0.0201181 0.0201222 0.0201263 0.0201305 0.0201347 0.0201389 0.0201432 0.0201475 0.0201519 0.0201563 0.0201607 0.0201651 0.0201695 0.020174 0.0201785 0.020183 0.0201874 0.0201919 0.0201964 0.0202009 0.0202054 0.0202099 0.0202143 0.0202188 0.0202232 0.0202277 0.0202321 0.0202365 0.0202408 0.0202451 0.0202495 0.0202537 0.020258 0.0202622 0.0202664 0.0202706 0.0202747 0.0202788 0.0202828 0.0202869 0.0202909 0.0202948 0.0202988 0.0203027 0.0203065 0.0203104 0.0203142 0.020318 0.0203217 0.0203255 0.0203292 0.0203329 0.0203365 0.0203402 0.0203438 0.0203474 0.020351 0.0203546 0.0203581 0.0203617 0.0203652 0.0203688 0.0203723 0.0203758 0.0203793 0.0203829 0.0203864 0.0203899 0.0203934 0.0203969 0.0204004 0.0204039 0.0204074 0.0204109 0.0204143 0.0204178 0.0204213 0.0204247 0.0204281 0.0204316 0.0204349 0.0204383 0.0204416 0.0204449 0.0204482 0.0204514 0.0204546 0.0204577 0.0204608 0.0204638 0.0204667 0.0204695 0.0204723 0.0204749 0.0204775 0.0204799 0.0204822 0.0204844 0.0204864 0.0204883 0.0204901 0.0204917 0.0204931 0.0204943 0.0204953 0.0204961 0.0204967 0.0204971 0.0204973 0.0204971 0.0204968 0.0204962 0.0204952 0.020494 0.0204925 0.0204907 0.0204886 0.0204861 0.0204833 0.0204801 0.0204766 0.0204727 0.0204683 0.0204636 0.0204585 0.0204529 0.0204469 0.0204404 0.0204334 0.020426 0.0204181 0.0204097 0.0204009 0.0203914 0.0203815 0.020371 0.02036 0.0203485 0.0203364 0.0203237 0.0203104 0.0202966 0.0202822 0.0202672 0.0202516 0.0202354 0.0202186 0.0202012 0.0201832 0.0201647 0.0201455 0.0201258 0.0201056 0.0200848 0.0200635 0.0200417 0.0200194 0.0199967 0.0199736 0.0199501 0.0199263 0.0199022 0.0198779 0.0198533 0.0198287 0.019804 0.0197792 0.0197545 0.01973 0.0197057 0.0196816 0.0196579 0.0196346 0.0196118 0.0195896 0.0195681 0.0195473 0.0195272 0.019508 0.0194897 0.0194723 0.0194558 0.0194404 0.0194259 0.0194125 0.0194 0.0193885 0.0193779 0.0193683 0.0193595 0.0193514 0.0193441 0.0193375 0.0193316 0.0193262 0.0193212 0.0193168 0.0193127 0.0193089 0.0193054 0.0193019 0.0192983 0.0192944 0.0192898 0.0192843 0.0192775 0.0192688 0.0192577 0.0192435 0.0192256 0.0192033 0.0191756 0.0191415 0.0190998 0.019049 0.0189871 0.0189111 0.018815 0.0186864 0.0185083 0.0182716 0.0179619 0.017563 0.0170715 0.0164758 0.0156599 0.0142177 0.0119748 0.00812949 -1.30104e-18 
0.0181404 0.0181314 0.0181147 0.018098 0.0180831 0.0180705 0.0180601 0.0180519 0.0180457 0.0180413 0.0180388 0.0180382 0.0180393 0.0180421 0.0180467 0.018053 0.018061 0.0180706 0.0180819 0.0180947 0.0181091 0.0181251 0.0181426 0.0181615 0.0181819 0.0182038 0.018227 0.0182516 0.0182775 0.0183047 0.0183332 0.0183629 0.0183938 0.0184258 0.018459 0.0184931 0.0185283 0.0185645 0.0186016 0.0186395 0.0186783 0.0187179 0.0187583 0.0187993 0.0188411 0.0188834 0.0189264 0.01897 0.0190141 0.0190587 0.0191039 0.0191495 0.0191955 0.019242 0.0192889 0.0193361 0.0193838 0.0194317 0.0194799 0.0195285 0.0195772 0.019626 0.0196748 0.0197232 0.0197709 0.0198173 0.0198619 0.0199042 0.0199449 0.0199848 0.0200249 0.0200656 0.0201072 0.0201495 0.0201924 0.0202356 0.0202791 0.0203228 0.0203665 0.0204101 0.0204536 0.0204969 0.02054 0.0205828 0.0206251 0.0206671 0.0207086 0.0207496 0.02079 0.0208298 0.0208689 0.0209074 0.0209452 0.0209822 0.0210184 0.0210538 0.0210883 0.0211219 0.0211547 0.0211865 0.0212173 0.0212471 0.021276 0.0213038 0.0213306 0.0213563 0.0213809 0.0214045 0.0214269 0.0214482 0.0214684 0.0214874 0.0215053 0.021522 0.0215376 0.021552 0.0215652 0.0215773 0.0215881 0.0215978 0.0216063 0.0216136 0.0216198 0.0216248 0.0216286 0.0216313 0.0216328 0.0216331 0.0216324 0.0216305 0.0216275 0.0216234 0.0216182 0.0216119 0.0216046 0.0215963 0.0215869 0.0215766 0.0215653 0.021553 0.0215398 0.0215257 0.0215108 0.0214949 0.0214783 0.0214609 0.0214427 0.0214238 0.0214041 0.0213838 0.0213629 0.0213414 0.0213193 0.0212966 0.0212735 0.0212499 0.0212259 0.0212015 0.0211767 0.0211516 0.0211262 0.0211006 0.0210748 0.0210488 0.0210227 0.0209964 0.0209701 0.0209438 0.0209175 0.0208912 0.020865 0.0208389 0.020813 0.0207872 0.0207616 0.0207363 0.0207112 0.0206864 0.0206618 0.0206377 0.0206139 0.0205904 0.0205674 0.0205448 0.0205226 0.0205009 0.0204797 0.0204589 0.0204386 0.0204189 0.0203996 0.0203809 0.0203627 0.0203451 0.020328 0.0203114 0.0202954 0.0202799 0.020265 0.0202506 0.0202368 0.0202235 0.0202107 0.0201984 0.0201867 0.0201754 0.0201647 0.0201545 0.0201447 0.0201354 0.0201266 0.0201182 0.0201102 0.0201027 0.0200955 0.0200888 0.0200824 0.0200764 0.0200708 0.0200655 0.0200605 0.0200559 0.0200515 0.0200474 0.0200436 0.02004 0.0200367 0.0200336 0.0200307 0.0200281 0.0200256 0.0200234 0.0200213 0.0200193 0.0200175 0.0200159 0.0200144 0.020013 0.0200117 0.0200106 0.0200095 0.0200085 0.0200077 0.0200069 0.0200061 0.0200055 0.0200049 0.0200043 0.0200038 0.0200034 0.020003 0.0200026 0.0200023 0.020002 0.0200018 0.0200015 0.0200013 0.0200011 0.020001 0.0200008 0.0200007 0.0200005 0.0200004 0.0200003 0.0200002 0.0200002 0.0200001 0.02 0.0199999 0.0199999 0.0199998 0.0199998 0.0199997 0.0199997 0.0199996 0.0199996 0.0199995 0.0199995 0.0199994 0.0199994 0.0199993 0.0199993 0.0199992 0.0199992 0.0199991 0.0199991 0.019999 0.019999 0.0199989 0.0199988 0.0199988 0.0199987 0.0199987 0.0199986 0.0199985 0.0199985 0.0199984 0.0199983 0.0199983 0.0199982 0.0199981 0.0199981 0.019998 0.0199979 0.0199979 0.0199978 0.0199977 0.0199977 0.0199976 0.0199976 0.0199975 0.0199975 0.0199974 0.0199974 0.0199974 0.0199974 0.0199974 0.0199974 0.0199974 0.0199974 0.0199975 0.0199975 0.0199976 0.0199977 0.0199978 0.0199979 0.019998 0.0199982 0.0199984 0.0199986 0.0199988 0.0199991 0.0199993 0.0199997 0.02 0.0200004 0.0200008 0.0200012 0.0200017 0.0200023 0.0200028 0.0200034 0.0200041 0.0200048 0.0200055 0.0200063 0.0200072 0.0200081 0.0200091 0.0200101 0.0200111 0.0200123 0.0200135 0.0200147 0.0200161 0.0200175 0.0200189 0.0200204 0.020022 0.0200237 0.0200254 0.0200273 0.0200291 0.0200311 0.0200331 0.0200353 0.0200375 0.0200397 0.0200421 0.0200445 0.020047 0.0200496 0.0200523 0.020055 0.0200579 0.0200608 0.0200638 0.0200668 0.02007 0.0200732 0.0200765 0.0200798 0.0200833 0.0200868 0.0200903 0.020094 0.0200977 0.0201015 0.0201053 0.0201092 0.0201131 0.0201171 0.0201212 0.0201253 0.0201294 0.0201336 0.0201378 0.0201421 0.0201464 0.0201508 0.0201551 0.0201595 0.0201639 0.0201684 0.0201728 0.0201773 0.0201818 0.0201862 0.0201907 0.0201952 0.0201997 0.0202042 0.0202087 0.0202132 0.0202176 0.0202221 0.0202265 0.0202309 0.0202353 0.0202397 0.020244 0.0202484 0.0202527 0.0202569 0.0202612 0.0202654 0.0202696 0.0202737 0.0202779 0.0202819 0.020286 0.02029 0.020294 0.020298 0.0203019 0.0203058 0.0203097 0.0203135 0.0203173 0.0203211 0.0203249 0.0203286 0.0203323 0.020336 0.0203397 0.0203434 0.020347 0.0203506 0.0203542 0.0203578 0.0203614 0.0203649 0.0203685 0.020372 0.0203755 0.0203791 0.0203826 0.0203861 0.0203896 0.0203931 0.0203966 0.0204001 0.0204035 0.020407 0.0204105 0.0204139 0.0204174 0.0204208 0.0204242 0.0204276 0.0204309 0.0204343 0.0204376 0.0204409 0.0204441 0.0204473 0.0204505 0.0204536 0.0204566 0.0204596 0.0204625 0.0204654 0.0204681 0.0204708 0.0204734 0.0204758 0.0204782 0.0204804 0.0204826 0.0204845 0.0204864 0.020488 0.0204896 0.0204909 0.0204921 0.020493 0.0204938 0.0204944 0.0204947 0.0204948 0.0204947 0.0204943 0.0204937 0.0204928 0.0204916 0.0204901 0.0204884 0.0204863 0.0204838 0.0204811 0.020478 0.0204745 0.0204706 0.0204664 0.0204618 0.0204567 0.0204512 0.0204453 0.020439 0.0204321 0.0204249 0.0204171 0.0204088 0.0204001 0.0203908 0.020381 0.0203707 0.0203599 0.0203485 0.0203365 0.020324 0.020311 0.0202973 0.0202831 0.0202683 0.020253 0.020237 0.0202205 0.0202033 0.0201856 0.0201673 0.0201485 0.0201291 0.0201091 0.0200886 0.0200676 0.0200462 0.0200242 0.0200018 0.019979 0.0199559 0.0199324 0.0199086 0.0198846 0.0198604 0.0198361 0.0198117 0.0197873 0.0197629 0.0197387 0.0197147 0.019691 0.0196676 0.0196447 0.0196222 0.0196003 0.0195791 0.0195586 0.0195389 0.01952 0.019502 0.0194849 0.0194688 0.0194537 0.0194396 0.0194264 0.0194143 0.0194032 0.019393 0.0193837 0.0193752 0.0193675 0.0193606 0.0193544 0.0193487 0.0193437 0.0193391 0.019335 0.0193312 0.0193277 0.0193244 0.019321 0.0193175 0.0193136 0.019309 0.0193033 0.0192961 0.0192868 0.019275 0.01926 0.0192409 0.0192172 0.0191879 0.019152 0.0191083 0.0190554 0.0189913 0.0189133 0.0188162 0.0186905 0.0185211 0.0182919 0.0179888 0.0176004 0.0171151 0.0164884 0.0155826 0.0141173 0.0116536 0.0073541 2.38524e-18 